<?xml version="1.0" encoding="UTF-8"?>

<!-- generated on 2025-09-21 00:48:36 by Eclipse SUMO GUI Version 1.24.0
<sumoConfiguration xmlns:xsi="http://www.w3.org/2001/XMLSchema-instance" xsi:noNamespaceSchemaLocation="http://sumo.dlr.de/xsd/sumoConfiguration.xsd">

    <input>
        <net-file value="KCCIntersection.net.xml"/>
        <route-files value="KCCIntersection_500h.rou.xml"/>
        <additional-files value="KCCIntersectionConfig.add.xml"/>
    </input>

    <output>
        <tripinfo-output value="baseline_tripinfo.xml"/>
    </output>

    <time>
        <begin value="0"/>
        <end value="1800000"/>
    </time>

    <processing>
        <ignore-junction-blocker value="5"/>
        <time-to-teleport value="-1"/>
    </processing>

    <report>
        <no-warnings value="false"/>
        <duration-log.disable value="true"/>
        <no-step-log value="true"/>
    </report>

    <traci_server>
        <remote-port value="52105"/>
    </traci_server>

    <gui_only>
        <quit-on-end value="true"/>
        <start value="true"/>
    </gui_only>

</sumoConfiguration>
-->

<tripinfos xmlns:xsi="http://www.w3.org/2001/XMLSchema-instance" xsi:noNamespaceSchemaLocation="http://sumo.dlr.de/xsd/tripinfo_file.xsd">
    <tripinfo id="private_car_0001" depart="0.00" departLane="276625085#0_0" departPos="4.90" departSpeed="0.00" departDelay="0.00" arrival="12.00" arrivalLane="-1167494165#0_0" arrivalPos="14.28" arrivalSpeed="18.30" duration="12.00" routeLength="91.18" waitingTime="0.00" waitingCount="0" stopTime="0.00" timeLoss="6.33" rerouteNo="0" devices="tripinfo_private_car_0001" vType="private_car" speedFactor="1.06" vaporized=""/>
    <tripinfo id="jeepney_0001" depart="10.00" departLane="-276625085#2_0" departPos="0.20" departSpeed="0.00" departDelay="0.00" arrival="18.00" arrivalLane="-276625085#0_0" arrivalPos="9.76" arrivalSpeed="6.46" duration="8.00" routeLength="22.69" waitingTime="0.00" waitingCount="0" stopTime="0.00" timeLoss="6.55" rerouteNo="0" devices="tripinfo_jeepney_0001" vType="jeepney" speedFactor="0.84" vaporized=""/>
    <tripinfo id="multicab_0001" depart="20.00" departLane="824453750#0_0" departPos="4.60" departSpeed="0.00" departDelay="0.00" arrival="101.00" arrivalLane="276625085#2_0" arrivalPos="0.20" arrivalSpeed="9.18" duration="81.00" routeLength="95.53" waitingTime="56.00" waitingCount="2" stopTime="0.00" timeLoss="73.70" rerouteNo="0" devices="tripinfo_multicab_0001" vType="multicab" speedFactor="0.86" vaporized=""/>
    <tripinfo id="jeepney_0002" depart="40.00" departLane="1384034325#2_0" departPos="7.10" departSpeed="0.00" departDelay="0.00" arrival="125.00" arrivalLane="-1167494165#0_0" arrivalPos="14.28" arrivalSpeed="16.47" duration="85.00" routeLength="445.10" waitingTime="28.00" waitingCount="1" stopTime="0.00" timeLoss="46.32" rerouteNo="0" devices="tripinfo_jeepney_0002" vType="jeepney" speedFactor="0.93" vaporized=""/>
    <tripinfo id="tricycle_0002" depart="93.00" departLane="-276625085#0_0" departPos="3.60" departSpeed="0.00" departDelay="23.00" arrival="127.00" arrivalLane="268552024#0_0" arrivalPos="15.33" arrivalSpeed="5.56" duration="34.00" routeLength="52.75" waitingTime="14.00" waitingCount="1" stopTime="0.00" timeLoss="27.08" rerouteNo="0" devices="tripinfo_tricycle_0002" vType="tricycle" speedFactor="0.69" vaporized=""/>
    <tripinfo id="tricycle_0004" depart="120.00" departLane="-1384034325#1_0" departPos="3.60" departSpeed="0.00" departDelay="0.00" arrival="130.00" arrivalLane="-1384034325#0_0" arrivalPos="12.13" arrivalSpeed="8.34" duration="10.00" routeLength="51.35" waitingTime="0.00" waitingCount="0" stopTime="0.00" timeLoss="3.83" rerouteNo="0" devices="tripinfo_tricycle_0004" vType="tricycle" speedFactor="0.85" vaporized=""/>
    <tripinfo id="jeepney_0005" depart="110.00" departLane="87479600#0_0" departPos="7.10" departSpeed="0.00" departDelay="0.00" arrival="136.00" arrivalLane="1167494164_0" arrivalPos="0.20" arrivalSpeed="8.97" duration="26.00" routeLength="118.95" waitingTime="2.00" waitingCount="1" stopTime="0.00" timeLoss="17.68" rerouteNo="0" devices="tripinfo_jeepney_0005" vType="jeepney" speedFactor="0.93" vaporized=""/>
    <tripinfo id="tricycle_0003" depart="80.00" departLane="87479596#1_0" departPos="3.60" departSpeed="0.00" departDelay="0.00" arrival="150.00" arrivalLane="-1167494164_0" arrivalPos="0.20" arrivalSpeed="3.59" duration="70.00" routeLength="89.24" waitingTime="51.00" waitingCount="1" stopTime="0.00" timeLoss="62.12" rerouteNo="0" devices="tripinfo_tricycle_0003" vType="tricycle" speedFactor="0.74" vaporized=""/>
    <tripinfo id="tricycle_0001" depart="30.00" departLane="87479596#5_0" departPos="3.60" departSpeed="0.00" departDelay="0.00" arrival="153.00" arrivalLane="-1384034325#0_0" arrivalPos="12.13" arrivalSpeed="9.13" duration="123.00" routeLength="568.00" waitingTime="36.00" waitingCount="2" stopTime="0.00" timeLoss="66.99" rerouteNo="0" devices="tripinfo_tricycle_0001" vType="tricycle" speedFactor="0.88" vaporized=""/>
    <tripinfo id="private_car_0003" depart="90.00" departLane="87479596#1_0" departPos="4.90" departSpeed="0.00" departDelay="0.00" arrival="154.00" arrivalLane="276625085#3_0" arrivalPos="0.67" arrivalSpeed="14.22" duration="64.00" routeLength="112.80" waitingTime="45.00" waitingCount="1" stopTime="0.00" timeLoss="58.10" rerouteNo="0" devices="tripinfo_private_car_0003" vType="private_car" speedFactor="0.86" vaporized=""/>
    <tripinfo id="tricycle_0005" depart="130.00" departLane="87479596#3_0" departPos="3.60" departSpeed="0.00" departDelay="0.00" arrival="165.00" arrivalLane="268552024#1_0" arrivalPos="10.18" arrivalSpeed="8.50" duration="35.00" routeLength="89.05" waitingTime="10.00" waitingCount="2" stopTime="0.00" timeLoss="26.85" rerouteNo="0" devices="tripinfo_tricycle_0005" vType="tricycle" speedFactor="0.92" vaporized=""/>
    <tripinfo id="jeepney_0006" depart="140.00" departLane="87479596#1_0" departPos="7.10" departSpeed="0.00" departDelay="0.00" arrival="170.00" arrivalLane="824453750#0_0" arrivalPos="33.30" arrivalSpeed="9.15" duration="30.00" routeLength="181.93" waitingTime="0.00" waitingCount="0" stopTime="0.00" timeLoss="18.13" rerouteNo="0" devices="tripinfo_jeepney_0006" vType="jeepney" speedFactor="0.89" vaporized=""/>
    <tripinfo id="jeepney_0008" depart="160.00" departLane="87479596#2_0" departPos="7.10" departSpeed="0.00" departDelay="0.00" arrival="181.00" arrivalLane="268552024#1_0" arrivalPos="10.18" arrivalSpeed="8.87" duration="21.00" routeLength="110.50" waitingTime="0.00" waitingCount="0" stopTime="0.00" timeLoss="12.37" rerouteNo="0" devices="tripinfo_jeepney_0008" vType="jeepney" speedFactor="0.78" vaporized=""/>
    <tripinfo id="jeepney_0003" depart="60.00" departLane="-1167494165#1_0" departPos="7.10" departSpeed="0.00" departDelay="0.00" arrival="187.00" arrivalLane="-1384034325#5_1" arrivalPos="23.73" arrivalSpeed="6.65" duration="127.00" routeLength="373.69" waitingTime="62.00" waitingCount="2" stopTime="0.00" timeLoss="95.49" rerouteNo="0" devices="tripinfo_jeepney_0003" vType="jeepney" speedFactor="0.95" vaporized=""/>
    <tripinfo id="jeepney_0004" depart="100.00" departLane="1167494165#1_0" departPos="7.10" departSpeed="0.00" departDelay="0.00" arrival="197.00" arrivalLane="-1384034325#3_1" arrivalPos="39.38" arrivalSpeed="11.00" duration="97.00" routeLength="375.51" waitingTime="47.00" waitingCount="1" stopTime="0.00" timeLoss="64.74" rerouteNo="0" devices="tripinfo_jeepney_0004" vType="jeepney" speedFactor="0.99" vaporized=""/>
    <tripinfo id="tricycle_0006" depart="190.00" departLane="-1384034325#0_0" departPos="3.60" departSpeed="0.00" departDelay="0.00" arrival="198.00" arrivalLane="-276625085#0_0" arrivalPos="9.76" arrivalSpeed="10.70" duration="8.00" routeLength="51.70" waitingTime="0.00" waitingCount="0" stopTime="0.00" timeLoss="4.17" rerouteNo="0" devices="tripinfo_tricycle_0006" vType="tricycle" speedFactor="0.74" vaporized=""/>
    <tripinfo id="private_car_0002" depart="50.00" departLane="-265732531_0" departPos="4.90" departSpeed="0.00" departDelay="0.00" arrival="208.00" arrivalLane="265732530_0" arrivalPos="203.61" arrivalSpeed="8.78" duration="158.00" routeLength="508.21" waitingTime="86.00" waitingCount="3" stopTime="0.00" timeLoss="106.10" rerouteNo="0" devices="tripinfo_private_car_0002" vType="private_car" speedFactor="0.83" vaporized=""/>
    <tripinfo id="jeepney_0010" depart="200.00" departLane="-1384034325#2_0" departPos="7.10" departSpeed="0.00" departDelay="0.00" arrival="215.00" arrivalLane="-276625085#2_0" arrivalPos="0.20" arrivalSpeed="12.47" duration="15.00" routeLength="115.19" waitingTime="0.00" waitingCount="0" stopTime="0.00" timeLoss="5.90" rerouteNo="0" devices="tripinfo_jeepney_0010" vType="jeepney" speedFactor="1.06" vaporized=""/>
    <tripinfo id="jeepney_0007" depart="150.00" departLane="265732531_0" departPos="7.10" departSpeed="0.00" departDelay="0.00" arrival="239.00" arrivalLane="87479600#0_0" arrivalPos="32.69" arrivalSpeed="8.70" duration="89.00" routeLength="540.81" waitingTime="4.00" waitingCount="1" stopTime="0.00" timeLoss="34.42" rerouteNo="0" devices="tripinfo_jeepney_0007" vType="jeepney" speedFactor="0.83" vaporized=""/>
    <tripinfo id="jeepney_0012" depart="240.00" departLane="276625085#1_0" departPos="0.20" departSpeed="0.00" departDelay="0.00" arrival="249.00" arrivalLane="268552024#1_0" arrivalPos="10.18" arrivalSpeed="9.46" duration="9.00" routeLength="39.98" waitingTime="0.00" waitingCount="0" stopTime="0.00" timeLoss="5.40" rerouteNo="0" devices="tripinfo_jeepney_0012" vType="jeepney" speedFactor="0.79" vaporized=""/>
    <tripinfo id="tricycle_0007" depart="210.00" departLane="276625085#0_0" departPos="3.60" departSpeed="0.00" departDelay="0.00" arrival="274.00" arrivalLane="1384034324_0" arrivalPos="0.20" arrivalSpeed="6.34" duration="64.00" routeLength="245.59" waitingTime="26.00" waitingCount="1" stopTime="0.00" timeLoss="38.39" rerouteNo="0" devices="tripinfo_tricycle_0007" vType="tricycle" speedFactor="0.82" vaporized=""/>
    <tripinfo id="private_car_0004" depart="230.00" departLane="-276625085#2_0" departPos="0.20" departSpeed="0.00" departDelay="0.00" arrival="287.00" arrivalLane="87479596#6_0" arrivalPos="15.97" arrivalSpeed="13.39" duration="57.00" routeLength="62.03" waitingTime="42.00" waitingCount="1" stopTime="0.00" timeLoss="53.21" rerouteNo="0" devices="tripinfo_private_car_0004" vType="private_car" speedFactor="0.97" vaporized=""/>
    <tripinfo id="bus_0002" depart="280.00" departLane="268552023#0_0" departPos="12.10" departSpeed="0.00" departDelay="0.00" arrival="292.00" arrivalLane="276625085#3_0" arrivalPos="0.67" arrivalSpeed="6.99" duration="12.00" routeLength="41.28" waitingTime="0.00" waitingCount="0" stopTime="0.00" timeLoss="9.25" rerouteNo="0" devices="tripinfo_bus_0002" vType="bus" speedFactor="0.80" vaporized=""/>
    <tripinfo id="bus_0001" depart="170.00" departLane="749942457_0" departPos="12.10" departSpeed="0.00" departDelay="0.00" arrival="295.00" arrivalLane="-1167494165#1_0" arrivalPos="17.88" arrivalSpeed="11.00" duration="125.00" routeLength="1451.93" waitingTime="9.00" waitingCount="1" stopTime="0.00" timeLoss="39.26" rerouteNo="0" devices="tripinfo_bus_0001" vType="bus" speedFactor="0.80" vaporized=""/>
    <tripinfo id="jeepney_0011" depart="220.00" departLane="1384034324_0" departPos="0.20" departSpeed="0.00" departDelay="0.00" arrival="297.00" arrivalLane="-265732531_0" arrivalPos="9.65" arrivalSpeed="10.66" duration="77.00" routeLength="221.05" waitingTime="46.00" waitingCount="2" stopTime="0.00" timeLoss="54.66" rerouteNo="0" devices="tripinfo_jeepney_0011" vType="jeepney" speedFactor="0.91" vaporized=""/>
    <tripinfo id="jeepney_0009" depart="180.00" departLane="-276625085#0_0" departPos="7.10" departSpeed="0.00" departDelay="0.00" arrival="306.00" arrivalLane="-276625085#3_0" arrivalPos="0.67" arrivalSpeed="11.76" duration="126.00" routeLength="461.87" waitingTime="56.00" waitingCount="3" stopTime="0.00" timeLoss="78.21" rerouteNo="0" devices="tripinfo_jeepney_0009" vType="jeepney" speedFactor="0.84" vaporized=""/>
    <tripinfo id="private_car_0005" depart="250.00" departLane="-1384034325#5_0" departPos="4.90" departSpeed="0.00" departDelay="0.00" arrival="308.00" arrivalLane="824453750#0_0" arrivalPos="33.30" arrivalSpeed="11.50" duration="58.00" routeLength="333.77" waitingTime="6.00" waitingCount="1" stopTime="0.00" timeLoss="27.04" rerouteNo="0" devices="tripinfo_private_car_0005" vType="private_car" speedFactor="0.83" vaporized=""/>
    <tripinfo id="bus_0003" depart="300.00" departLane="-276625085#0_0" departPos="9.76" departSpeed="0.00" departDelay="0.00" arrival="313.00" arrivalLane="-1167494165#0_0" arrivalPos="14.28" arrivalSpeed="10.34" duration="13.00" routeLength="71.89" waitingTime="0.00" waitingCount="0" stopTime="0.00" timeLoss="9.34" rerouteNo="0" devices="tripinfo_bus_0003" vType="bus" speedFactor="0.80" vaporized=""/>
    <tripinfo id="jeepney_0017" depart="340.00" departLane="276625085#1_0" departPos="0.20" departSpeed="0.00" departDelay="0.00" arrival="349.00" arrivalLane="1384034325#0_0" arrivalPos="12.13" arrivalSpeed="8.65" duration="9.00" routeLength="37.88" waitingTime="0.00" waitingCount="0" stopTime="0.00" timeLoss="6.35" rerouteNo="0" devices="tripinfo_jeepney_0017" vType="jeepney" speedFactor="1.05" vaporized=""/>
    <tripinfo id="private_car_0006" depart="260.00" departLane="-1384034325#5_0" departPos="4.90" departSpeed="0.00" departDelay="0.00" arrival="363.00" arrivalLane="1384034324_0" arrivalPos="0.20" arrivalSpeed="7.67" duration="103.00" routeLength="485.97" waitingTime="34.00" waitingCount="1" stopTime="0.00" timeLoss="56.72" rerouteNo="0" devices="tripinfo_private_car_0006" vType="private_car" speedFactor="0.87" vaporized=""/>
    <tripinfo id="tricycle_0008" depart="360.00" departLane="-276625085#2_0" departPos="0.20" departSpeed="0.00" departDelay="0.00" arrival="363.00" arrivalLane="-276625085#1_0" arrivalPos="0.20" arrivalSpeed="3.91" duration="3.00" routeLength="6.13" waitingTime="0.00" waitingCount="0" stopTime="0.00" timeLoss="2.49" rerouteNo="0" devices="tripinfo_tricycle_0008" vType="tricycle" speedFactor="0.97" vaporized=""/>
    <tripinfo id="delivery_truck_0001" depart="336.00" departLane="87479596#4_0" departPos="0.20" departSpeed="0.00" departDelay="6.00" arrival="370.00" arrivalLane="-87479601_0" arrivalPos="249.89" arrivalSpeed="21.92" duration="34.00" routeLength="322.77" waitingTime="3.00" waitingCount="1" stopTime="0.00" timeLoss="18.52" rerouteNo="0" devices="tripinfo_delivery_truck_0001" vType="delivery_truck" speedFactor="0.99" vaporized=""/>
    <tripinfo id="jeepney_0013" depart="270.00" departLane="87479601_0" departPos="7.10" departSpeed="0.00" departDelay="0.00" arrival="383.00" arrivalLane="276625085#0_0" arrivalPos="9.76" arrivalSpeed="6.48" duration="113.00" routeLength="339.90" waitingTime="67.00" waitingCount="2" stopTime="0.00" timeLoss="94.01" rerouteNo="0" devices="tripinfo_jeepney_0013" vType="jeepney" speedFactor="0.82" vaporized=""/>
    <tripinfo id="jeepney_0015" depart="310.00" departLane="1167494164_0" departPos="0.20" departSpeed="0.00" departDelay="0.00" arrival="384.00" arrivalLane="-276625085#2_0" arrivalPos="0.20" arrivalSpeed="13.90" duration="74.00" routeLength="470.11" waitingTime="19.00" waitingCount="1" stopTime="0.00" timeLoss="34.94" rerouteNo="0" devices="tripinfo_jeepney_0015" vType="jeepney" speedFactor="1.03" vaporized=""/>
    <tripinfo id="jeepney_0014" depart="290.00" departLane="87479596#3_0" departPos="7.10" departSpeed="0.00" departDelay="0.00" arrival="385.00" arrivalLane="824453750#2_0" arrivalPos="0.20" arrivalSpeed="4.92" duration="95.00" routeLength="44.00" waitingTime="75.00" waitingCount="3" stopTime="0.00" timeLoss="90.37" rerouteNo="0" devices="tripinfo_jeepney_0014" vType="jeepney" speedFactor="0.85" vaporized=""/>
    <tripinfo id="jeepney_0016" depart="320.00" departLane="-265732531_0" departPos="7.10" departSpeed="0.00" departDelay="0.00" arrival="385.00" arrivalLane="87479596#7_0" arrivalPos="8.18" arrivalSpeed="10.49" duration="65.00" routeLength="92.74" waitingTime="43.00" waitingCount="1" stopTime="0.00" timeLoss="58.66" rerouteNo="0" devices="tripinfo_jeepney_0016" vType="jeepney" speedFactor="0.83" vaporized=""/>
    <tripinfo id="multicab_0002" depart="352.00" departLane="87479596#6_0" departPos="4.60" departSpeed="0.00" departDelay="2.00" arrival="404.00" arrivalLane="1384034325#3_0" arrivalPos="39.38" arrivalSpeed="9.20" duration="52.00" routeLength="301.64" waitingTime="3.00" waitingCount="1" stopTime="0.00" timeLoss="23.94" rerouteNo="0" devices="tripinfo_multicab_0002" vType="multicab" speedFactor="0.86" vaporized=""/>
    <tripinfo id="jeepney_0018" depart="400.00" departLane="-1384034325#1_0" departPos="7.10" departSpeed="0.00" departDelay="0.00" arrival="420.00" arrivalLane="-1167494165#1_0" arrivalPos="17.88" arrivalSpeed="12.89" duration="20.00" routeLength="140.70" waitingTime="0.00" waitingCount="0" stopTime="0.00" timeLoss="11.08" rerouteNo="0" devices="tripinfo_jeepney_0018" vType="jeepney" speedFactor="1.08" vaporized=""/>
    <tripinfo id="jeepney_0019" depart="420.00" departLane="87479596#0_0" departPos="7.10" departSpeed="0.00" departDelay="0.00" arrival="455.00" arrivalLane="1384034325#2_0" arrivalPos="46.55" arrivalSpeed="8.42" duration="35.00" routeLength="257.39" waitingTime="0.00" waitingCount="0" stopTime="0.00" timeLoss="13.43" rerouteNo="0" devices="tripinfo_jeepney_0019" vType="jeepney" speedFactor="0.80" vaporized=""/>
    <tripinfo id="private_car_0008" depart="410.00" departLane="-1384034325#2_0" departPos="4.90" departSpeed="0.00" departDelay="0.00" arrival="477.00" arrivalLane="276625085#0_0" arrivalPos="9.76" arrivalSpeed="7.11" duration="67.00" routeLength="154.51" waitingTime="43.00" waitingCount="2" stopTime="0.00" timeLoss="55.74" rerouteNo="0" devices="tripinfo_private_car_0008" vType="private_car" speedFactor="1.10" vaporized=""/>
    <tripinfo id="jeepney_0022" depart="472.00" departLane="276625085#3_0" departPos="0.67" departSpeed="0.00" departDelay="12.00" arrival="478.00" arrivalLane="265732531_0" arrivalPos="9.65" arrivalSpeed="5.35" duration="6.00" routeLength="18.05" waitingTime="0.00" waitingCount="0" stopTime="0.00" timeLoss="5.06" rerouteNo="0" devices="tripinfo_jeepney_0022" vType="jeepney" speedFactor="0.94" vaporized=""/>
    <tripinfo id="tricycle_0009" depart="370.00" departLane="268552023#1_0" departPos="3.60" departSpeed="0.00" departDelay="0.00" arrival="482.00" arrivalLane="-276625085#2_0" arrivalPos="0.20" arrivalSpeed="11.16" duration="112.00" routeLength="458.03" waitingTime="43.00" waitingCount="1" stopTime="0.00" timeLoss="61.08" rerouteNo="0" devices="tripinfo_tricycle_0009" vType="tricycle" speedFactor="0.79" vaporized=""/>
    <tripinfo id="tricycle_0010" depart="380.00" departLane="1384034325#0_0" departPos="3.60" departSpeed="0.00" departDelay="0.00" arrival="482.00" arrivalLane="-265732531_1" arrivalPos="9.65" arrivalSpeed="9.34" duration="102.00" routeLength="398.73" waitingTime="43.00" waitingCount="1" stopTime="0.00" timeLoss="56.83" rerouteNo="0" devices="tripinfo_tricycle_0010" vType="tricycle" speedFactor="0.82" vaporized=""/>
    <tripinfo id="private_car_0009" depart="430.00" departLane="-1384034325#0_0" departPos="4.90" departSpeed="0.00" departDelay="0.00" arrival="486.00" arrivalLane="1384034325#0_0" arrivalPos="12.13" arrivalSpeed="10.30" duration="56.00" routeLength="109.93" waitingTime="33.00" waitingCount="1" stopTime="0.00" timeLoss="49.55" rerouteNo="0" devices="tripinfo_private_car_0009" vType="private_car" speedFactor="1.03" vaporized=""/>
    <tripinfo id="jeepney_0023" depart="472.00" departLane="-276625085#2_0" departPos="0.20" departSpeed="0.00" departDelay="2.00" arrival="490.00" arrivalLane="276625085#1_0" arrivalPos="0.20" arrivalSpeed="7.04" duration="18.00" routeLength="44.34" waitingTime="2.00" waitingCount="1" stopTime="0.00" timeLoss="14.79" rerouteNo="0" devices="tripinfo_jeepney_0023" vType="jeepney" speedFactor="0.94" vaporized=""/>
    <tripinfo id="jeepney_0021" depart="471.00" departLane="-1167494164_0" departPos="0.20" departSpeed="0.00" departDelay="21.00" arrival="492.00" arrivalLane="824453750#0_0" arrivalPos="33.30" arrivalSpeed="8.73" duration="21.00" routeLength="112.49" waitingTime="0.00" waitingCount="0" stopTime="0.00" timeLoss="11.34" rerouteNo="0" devices="tripinfo_jeepney_0021" vType="jeepney" speedFactor="0.99" vaporized=""/>
    <tripinfo id="private_car_0010" depart="480.00" departLane="-1384034325#2_0" departPos="4.90" departSpeed="0.00" departDelay="0.00" arrival="512.00" arrivalLane="1384034325#2_0" arrivalPos="46.55" arrivalSpeed="11.60" duration="32.00" routeLength="289.27" waitingTime="0.00" waitingCount="0" stopTime="0.00" timeLoss="11.05" rerouteNo="0" devices="tripinfo_private_car_0010" vType="private_car" speedFactor="1.09" vaporized=""/>
    <tripinfo id="private_car_0007" depart="390.00" departLane="87479601_0" departPos="4.90" departSpeed="0.00" departDelay="0.00" arrival="565.00" arrivalLane="265732530_1" arrivalPos="203.61" arrivalSpeed="10.03" duration="175.00" routeLength="797.91" waitingTime="87.00" waitingCount="3" stopTime="0.00" timeLoss="117.92" rerouteNo="0" devices="tripinfo_private_car_0007" vType="private_car" speedFactor="0.97" vaporized=""/>
    <tripinfo id="jeepney_0027" depart="569.00" departLane="-1167494164_0" departPos="0.20" departSpeed="0.00" departDelay="29.00" arrival="572.00" arrivalLane="1167494164_0" arrivalPos="0.20" arrivalSpeed="2.69" duration="3.00" routeLength="4.87" waitingTime="0.00" waitingCount="0" stopTime="0.00" timeLoss="1.90" rerouteNo="0" devices="tripinfo_jeepney_0027" vType="jeepney" speedFactor="1.07" vaporized=""/>
    <tripinfo id="jeepney_0020" depart="440.00" departLane="87479601_0" departPos="7.10" departSpeed="0.00" departDelay="0.00" arrival="573.00" arrivalLane="265732531_0" arrivalPos="9.65" arrivalSpeed="9.34" duration="133.00" routeLength="372.57" waitingTime="82.00" waitingCount="2" stopTime="0.00" timeLoss="112.58" rerouteNo="0" devices="tripinfo_jeepney_0020" vType="jeepney" speedFactor="0.86" vaporized=""/>
    <tripinfo id="private_car_0011" depart="520.00" departLane="-276625085#3_0" departPos="0.67" departSpeed="0.00" departDelay="0.00" arrival="576.00" arrivalLane="276625085#0_0" arrivalPos="9.76" arrivalSpeed="6.09" duration="56.00" routeLength="38.17" waitingTime="42.00" waitingCount="2" stopTime="0.00" timeLoss="52.85" rerouteNo="0" devices="tripinfo_private_car_0011" vType="private_car" speedFactor="0.85" vaporized=""/>
    <tripinfo id="jeepney_0024" depart="492.00" departLane="1384034325#3_0" departPos="7.10" departSpeed="0.00" departDelay="2.00" arrival="584.00" arrivalLane="87479596#7_0" arrivalPos="8.18" arrivalSpeed="11.19" duration="92.00" routeLength="383.53" waitingTime="31.00" waitingCount="1" stopTime="0.00" timeLoss="56.33" rerouteNo="0" devices="tripinfo_jeepney_0024" vType="jeepney" speedFactor="0.90" vaporized=""/>
    <tripinfo id="jeepney_0025" depart="500.00" departLane="87479596#4_0" departPos="0.20" departSpeed="0.00" departDelay="0.00" arrival="584.00" arrivalLane="-276625085#2_0" arrivalPos="0.20" arrivalSpeed="9.68" duration="84.00" routeLength="469.24" waitingTime="20.00" waitingCount="1" stopTime="0.00" timeLoss="33.90" rerouteNo="0" devices="tripinfo_jeepney_0025" vType="jeepney" speedFactor="0.80" vaporized=""/>
    <tripinfo id="private_car_0012" depart="572.00" departLane="-1167494164_0" departPos="0.20" departSpeed="0.00" departDelay="22.00" arrival="584.00" arrivalLane="87479596#6_0" arrivalPos="15.97" arrivalSpeed="11.42" duration="12.00" routeLength="50.17" waitingTime="2.00" waitingCount="1" stopTime="0.00" timeLoss="8.65" rerouteNo="0" devices="tripinfo_private_car_0012" vType="private_car" speedFactor="1.02" vaporized=""/>
    <tripinfo id="jeepney_0026" depart="510.00" departLane="198582931_0" departPos="7.10" departSpeed="0.00" departDelay="0.00" arrival="587.00" arrivalLane="-1384034325#4_1" arrivalPos="28.25" arrivalSpeed="7.73" duration="77.00" routeLength="1155.51" waitingTime="0.00" waitingCount="0" stopTime="0.00" timeLoss="12.52" rerouteNo="0" devices="tripinfo_jeepney_0026" vType="jeepney" speedFactor="0.78" vaporized=""/>
    <tripinfo id="tricycle_0012" depart="579.00" departLane="1167494164_0" departPos="0.20" departSpeed="0.00" departDelay="19.00" arrival="590.00" arrivalLane="-1167494165#1_0" arrivalPos="17.88" arrivalSpeed="7.85" duration="11.00" routeLength="39.55" waitingTime="1.00" waitingCount="1" stopTime="0.00" timeLoss="7.27" rerouteNo="0" devices="tripinfo_tricycle_0012" vType="tricycle" speedFactor="0.90" vaporized=""/>
    <tripinfo id="tricycle_0013" depart="590.00" departLane="-1384034325#0_0" departPos="3.60" departSpeed="0.00" departDelay="0.00" arrival="604.00" arrivalLane="824453750#2_0" arrivalPos="0.20" arrivalSpeed="7.83" duration="14.00" routeLength="82.59" waitingTime="0.00" waitingCount="0" stopTime="0.00" timeLoss="7.00" rerouteNo="0" devices="tripinfo_tricycle_0013" vType="tricycle" speedFactor="0.70" vaporized=""/>
    <tripinfo id="habal_habal_0001" depart="570.00" departLane="87479596#4_0" departPos="0.20" departSpeed="0.00" departDelay="0.00" arrival="624.00" arrivalLane="87479596#7_0" arrivalPos="8.18" arrivalSpeed="14.21" duration="54.00" routeLength="64.67" waitingTime="44.00" waitingCount="1" stopTime="0.00" timeLoss="51.13" rerouteNo="0" devices="tripinfo_habal_habal_0001" vType="habal_habal" speedFactor="1.10" vaporized=""/>
    <tripinfo id="jeepney_0028" depart="580.00" departLane="-1384034325#1_0" departPos="7.10" departSpeed="0.00" departDelay="0.00" arrival="625.00" arrivalLane="1384034325#5_0" arrivalPos="23.73" arrivalSpeed="9.10" duration="45.00" routeLength="332.29" waitingTime="0.00" waitingCount="0" stopTime="0.00" timeLoss="14.17" rerouteNo="0" devices="tripinfo_jeepney_0028" vType="jeepney" speedFactor="0.90" vaporized=""/>
    <tripinfo id="tricycle_0011" depart="530.00" departLane="268552024#1_0" departPos="3.60" departSpeed="0.00" departDelay="0.00" arrival="649.00" arrivalLane="-1384034325#3_1" arrivalPos="39.38" arrivalSpeed="5.76" duration="119.00" routeLength="446.04" waitingTime="29.00" waitingCount="2" stopTime="0.00" timeLoss="62.38" rerouteNo="0" devices="tripinfo_tricycle_0011" vType="tricycle" speedFactor="0.65" vaporized=""/>
    <tripinfo id="private_car_0013" depart="600.00" departLane="1384034325#2_0" departPos="4.90" departSpeed="0.00" departDelay="0.00" arrival="658.00" arrivalLane="-265732531_0" arrivalPos="9.65" arrivalSpeed="13.46" duration="58.00" routeLength="342.19" waitingTime="14.00" waitingCount="1" stopTime="0.00" timeLoss="30.44" rerouteNo="0" devices="tripinfo_private_car_0013" vType="private_car" speedFactor="1.14" vaporized=""/>
    <tripinfo id="private_car_0014" depart="640.00" departLane="1384034325#2_0" departPos="4.90" departSpeed="0.00" departDelay="0.00" arrival="674.00" arrivalLane="265732530_1" arrivalPos="203.61" arrivalSpeed="11.50" duration="34.00" routeLength="362.70" waitingTime="0.00" waitingCount="0" stopTime="0.00" timeLoss="4.60" rerouteNo="0" devices="tripinfo_private_car_0014" vType="private_car" speedFactor="1.12" vaporized=""/>
    <tripinfo id="tricycle_0016" depart="670.00" departLane="-276625085#0_0" departPos="3.60" departSpeed="0.00" departDelay="0.00" arrival="674.00" arrivalLane="-276625085#0_0" arrivalPos="9.76" arrivalSpeed="3.74" duration="4.00" routeLength="6.16" waitingTime="0.00" waitingCount="0" stopTime="0.00" timeLoss="3.39" rerouteNo="0" devices="tripinfo_tricycle_0016" vType="tricycle" speedFactor="0.74" vaporized=""/>
    <tripinfo id="tricycle_0015" depart="650.00" departLane="-1384034325#3_0" departPos="3.60" departSpeed="0.00" departDelay="0.00" arrival="676.00" arrivalLane="-276625085#0_0" arrivalPos="9.76" arrivalSpeed="10.89" duration="26.00" routeLength="180.86" waitingTime="0.00" waitingCount="0" stopTime="0.00" timeLoss="7.44" rerouteNo="0" devices="tripinfo_tricycle_0015" vType="tricycle" speedFactor="0.82" vaporized=""/>
    <tripinfo id="private_car_0015" depart="660.00" departLane="1167494165#0_0" departPos="4.90" departSpeed="0.00" departDelay="0.00" arrival="679.00" arrivalLane="268552024#0_0" arrivalPos="15.33" arrivalSpeed="8.52" duration="19.00" routeLength="108.05" waitingTime="2.00" waitingCount="1" stopTime="0.00" timeLoss="13.47" rerouteNo="0" devices="tripinfo_private_car_0015" vType="private_car" speedFactor="0.99" vaporized=""/>
    <tripinfo id="delivery_truck_0002" depart="620.00" departLane="-265732531_0" departPos="6.60" departSpeed="0.00" departDelay="0.00" arrival="683.00" arrivalLane="-87479601_0" arrivalPos="249.89" arrivalSpeed="21.67" duration="63.00" routeLength="351.34" waitingTime="25.00" waitingCount="1" stopTime="0.00" timeLoss="45.20" rerouteNo="0" devices="tripinfo_delivery_truck_0002" vType="delivery_truck" speedFactor="0.88" vaporized=""/>
    <tripinfo id="jeepney_0029" depart="610.00" departLane="265732531_0" departPos="7.10" departSpeed="0.00" departDelay="0.00" arrival="684.00" arrivalLane="824453750#0_0" arrivalPos="33.30" arrivalSpeed="8.01" duration="74.00" routeLength="540.06" waitingTime="0.00" waitingCount="0" stopTime="0.00" timeLoss="24.37" rerouteNo="0" devices="tripinfo_jeepney_0029" vType="jeepney" speedFactor="0.92" vaporized=""/>
    <tripinfo id="tricycle_0017" depart="680.00" departLane="-1384034325#0_0" departPos="3.60" departSpeed="0.00" departDelay="0.00" arrival="696.00" arrivalLane="276625085#0_0" arrivalPos="9.76" arrivalSpeed="4.33" duration="16.00" routeLength="66.13" waitingTime="0.00" waitingCount="0" stopTime="0.00" timeLoss="9.57" rerouteNo="0" devices="tripinfo_tricycle_0017" vType="tricycle" speedFactor="0.68" vaporized=""/>