<?xml version="1.0" encoding="UTF-8"?>

<!-- generated on 2025-09-20 17:28:22 by Eclipse SUMO sumo Version 1.24.0
<sumoConfiguration xmlns:xsi="http://www.w3.org/2001/XMLSchema-instance" xsi:noNamespaceSchemaLocation="http://sumo.dlr.de/xsd/sumoConfiguration.xsd">

    <input>
        <net-file value="KCCIntersection.net.xml"/>
        <route-files value="KCCIntersection_500h.rou.xml"/>
        <additional-files value="KCCIntersectionConfig.add.xml"/>
    </input>

    <output>
        <tripinfo-output value="optimized_tripinfo.xml"/>
    </output>

    <time>
        <begin value="0"/>
        <end value="1800000"/>
    </time>

    <processing>
        <ignore-junction-blocker value="5"/>
        <time-to-teleport value="-1"/>
    </processing>

    <report>
        <no-warnings value="false"/>
        <duration-log.disable value="true"/>
        <no-step-log value="true"/>
    </report>

    <traci_server>
        <remote-port value="58704"/>
    </traci_server>

    <gui_only>
        <quit-on-end value="true"/>
        <start value="true"/>
    </gui_only>

</sumoConfiguration>
-->

<tripinfos xmlns:xsi="http://www.w3.org/2001/XMLSchema-instance" xsi:noNamespaceSchemaLocation="http://sumo.dlr.de/xsd/tripinfo_file.xsd">
    <tripinfo id="0" depart="0.00" departLane="276625085#0_0" departPos="5.10" departSpeed="0.00" departDelay="0.00" arrival="11.00" arrivalLane="-1167494165#0_0" arrivalPos="14.28" arrivalSpeed="17.17" duration="11.00" routeLength="90.98" waitingTime="0.00" waitingCount="0" stopTime="0.00" timeLoss="6.39" rerouteNo="0" devices="tripinfo_0" vType="DEFAULT_VEHTYPE" speedFactor="1.06" vaporized=""/>
    <tripinfo id="1" depart="10.00" departLane="-276625085#2_0" departPos="0.20" departSpeed="0.00" departDelay="0.00" arrival="15.00" arrivalLane="-276625085#0_0" arrivalPos="9.76" arrivalSpeed="8.58" duration="5.00" routeLength="22.69" waitingTime="0.00" waitingCount="0" stopTime="0.00" timeLoss="4.00" rerouteNo="0" devices="tripinfo_1" vType="DEFAULT_VEHTYPE" speedFactor="0.94" vaporized=""/>
    <tripinfo id="2" depart="20.00" departLane="824453750#0_0" departPos="5.10" departSpeed="0.00" departDelay="0.00" arrival="58.00" arrivalLane="276625085#2_0" arrivalPos="0.20" arrivalSpeed="11.52" duration="38.00" routeLength="95.03" waitingTime="21.00" waitingCount="1" stopTime="0.00" timeLoss="32.80" rerouteNo="0" devices="tripinfo_2" vType="DEFAULT_VEHTYPE" speedFactor="1.01" vaporized=""/>
    <tripinfo id="4" depart="40.00" departLane="1384034325#2_0" departPos="5.10" departSpeed="0.00" departDelay="0.00" arrival="85.00" arrivalLane="-1167494165#0_0" arrivalPos="14.28" arrivalSpeed="24.61" duration="45.00" routeLength="447.10" waitingTime="0.00" waitingCount="0" stopTime="0.00" timeLoss="10.20" rerouteNo="0" devices="tripinfo_4" vType="DEFAULT_VEHTYPE" speedFactor="1.03" vaporized=""/>
    <tripinfo id="7" depart="70.00" departLane="-276625085#0_0" departPos="5.10" departSpeed="0.00" departDelay="0.00" arrival="85.00" arrivalLane="268552024#0_0" arrivalPos="15.33" arrivalSpeed="7.32" duration="15.00" routeLength="51.25" waitingTime="1.00" waitingCount="1" stopTime="0.00" timeLoss="9.93" rerouteNo="0" devices="tripinfo_7" vType="DEFAULT_VEHTYPE" speedFactor="0.89" vaporized=""/>
    <tripinfo id="8" depart="80.00" departLane="87479596#1_0" departPos="5.10" departSpeed="0.00" departDelay="0.00" arrival="93.00" arrivalLane="-1167494164_0" arrivalPos="0.20" arrivalSpeed="5.61" duration="13.00" routeLength="87.74" waitingTime="0.00" waitingCount="0" stopTime="0.00" timeLoss="8.14" rerouteNo="0" devices="tripinfo_8" vType="DEFAULT_VEHTYPE" speedFactor="0.94" vaporized=""/>
    <tripinfo id="3" depart="30.00" departLane="87479596#5_0" departPos="5.10" departSpeed="0.00" departDelay="0.00" arrival="99.00" arrivalLane="-1384034325#0_1" arrivalPos="12.13" arrivalSpeed="11.58" duration="69.00" routeLength="566.50" waitingTime="6.00" waitingCount="1" stopTime="0.00" timeLoss="25.36" rerouteNo="0" devices="tripinfo_3" vType="DEFAULT_VEHTYPE" speedFactor="1.08" vaporized=""/>
    <tripinfo id="6" depart="60.00" departLane="-1167494165#1_0" departPos="5.10" departSpeed="0.00" departDelay="0.00" arrival="104.00" arrivalLane="-1384034325#5_1" arrivalPos="23.73" arrivalSpeed="9.60" duration="44.00" routeLength="375.69" waitingTime="2.00" waitingCount="1" stopTime="0.00" timeLoss="18.38" rerouteNo="0" devices="tripinfo_6" vType="DEFAULT_VEHTYPE" speedFactor="1.05" vaporized=""/>
    <tripinfo id="9" depart="90.00" departLane="87479596#1_0" departPos="5.10" departSpeed="0.00" departDelay="0.00" arrival="104.00" arrivalLane="276625085#3_0" arrivalPos="0.67" arrivalSpeed="13.95" duration="14.00" routeLength="112.60" waitingTime="0.00" waitingCount="0" stopTime="0.00" timeLoss="8.13" rerouteNo="0" devices="tripinfo_9" vType="DEFAULT_VEHTYPE" speedFactor="0.86" vaporized=""/>
    <tripinfo id="5" depart="50.00" departLane="-265732531_0" departPos="5.10" departSpeed="0.00" departDelay="0.00" arrival="115.00" arrivalLane="265732530_0" arrivalPos="203.61" arrivalSpeed="8.40" duration="65.00" routeLength="508.01" waitingTime="0.00" waitingCount="0" stopTime="0.00" timeLoss="13.52" rerouteNo="0" devices="tripinfo_5" vType="DEFAULT_VEHTYPE" speedFactor="0.83" vaporized=""/>
    <tripinfo id="11" depart="110.00" departLane="87479600#0_0" departPos="5.10" departSpeed="0.00" departDelay="0.00" arrival="125.00" arrivalLane="1167494164_0" arrivalPos="0.20" arrivalSpeed="12.68" duration="15.00" routeLength="120.95" waitingTime="0.00" waitingCount="0" stopTime="0.00" timeLoss="7.97" rerouteNo="0" devices="tripinfo_11" vType="DEFAULT_VEHTYPE" speedFactor="1.03" vaporized=""/>
    <tripinfo id="12" depart="120.00" departLane="-1384034325#1_0" departPos="5.10" departSpeed="0.00" departDelay="0.00" arrival="127.00" arrivalLane="-1384034325#0_0" arrivalPos="12.13" arrivalSpeed="11.47" duration="7.00" routeLength="49.85" waitingTime="0.00" waitingCount="0" stopTime="0.00" timeLoss="2.30" rerouteNo="0" devices="tripinfo_12" vType="DEFAULT_VEHTYPE" speedFactor="1.05" vaporized=""/>
    <tripinfo id="13" depart="130.00" departLane="87479596#3_0" departPos="5.10" departSpeed="0.00" departDelay="0.00" arrival="143.00" arrivalLane="268552024#1_0" arrivalPos="10.18" arrivalSpeed="10.78" duration="13.00" routeLength="87.55" waitingTime="0.00" waitingCount="0" stopTime="0.00" timeLoss="7.75" rerouteNo="0" devices="tripinfo_13" vType="DEFAULT_VEHTYPE" speedFactor="1.12" vaporized=""/>
    <tripinfo id="10" depart="100.00" departLane="1167494165#1_0" departPos="5.10" departSpeed="0.00" departDelay="0.00" arrival="145.00" arrivalLane="-1384034325#3_1" arrivalPos="39.38" arrivalSpeed="11.56" duration="45.00" routeLength="377.51" waitingTime="1.00" waitingCount="1" stopTime="0.00" timeLoss="16.54" rerouteNo="0" devices="tripinfo_10" vType="DEFAULT_VEHTYPE" speedFactor="1.09" vaporized=""/>
    <tripinfo id="14" depart="140.00" departLane="87479596#1_0" departPos="5.10" departSpeed="0.00" departDelay="0.00" arrival="160.00" arrivalLane="824453750#0_0" arrivalPos="33.30" arrivalSpeed="12.39" duration="20.00" routeLength="183.93" waitingTime="0.00" waitingCount="0" stopTime="0.00" timeLoss="11.26" rerouteNo="0" devices="tripinfo_14" vType="DEFAULT_VEHTYPE" speedFactor="0.99" vaporized=""/>
    <tripinfo id="16" depart="160.00" departLane="87479596#2_0" departPos="5.10" departSpeed="0.00" departDelay="0.00" arrival="177.00" arrivalLane="268552024#1_0" arrivalPos="10.18" arrivalSpeed="12.37" duration="17.00" routeLength="112.50" waitingTime="0.00" waitingCount="0" stopTime="0.00" timeLoss="9.17" rerouteNo="0" devices="tripinfo_16" vType="DEFAULT_VEHTYPE" speedFactor="0.88" vaporized=""/>
    <tripinfo id="19" depart="190.00" departLane="-1384034325#0_0" departPos="5.10" departSpeed="0.00" departDelay="0.00" arrival="197.00" arrivalLane="-276625085#0_0" arrivalPos="9.76" arrivalSpeed="15.28" duration="7.00" routeLength="50.20" waitingTime="0.00" waitingCount="0" stopTime="0.00" timeLoss="4.84" rerouteNo="0" devices="tripinfo_19" vType="DEFAULT_VEHTYPE" speedFactor="1.16" vaporized=""/>
    <tripinfo id="20" depart="200.00" departLane="-1384034325#2_0" departPos="5.10" departSpeed="0.00" departDelay="0.00" arrival="213.00" arrivalLane="-276625085#2_0" arrivalPos="0.20" arrivalSpeed="13.63" duration="13.00" routeLength="117.19" waitingTime="0.00" waitingCount="0" stopTime="0.00" timeLoss="3.99" rerouteNo="0" devices="tripinfo_20" vType="DEFAULT_VEHTYPE" speedFactor="1.02" vaporized=""/>
    <tripinfo id="15" depart="150.00" departLane="265732531_0" departPos="5.10" departSpeed="0.00" departDelay="0.00" arrival="215.00" arrivalLane="87479600#0_0" arrivalPos="32.69" arrivalSpeed="12.12" duration="65.00" routeLength="542.81" waitingTime="0.00" waitingCount="0" stopTime="0.00" timeLoss="17.22" rerouteNo="0" devices="tripinfo_15" vType="DEFAULT_VEHTYPE" speedFactor="0.93" vaporized=""/>
    <tripinfo id="21" depart="210.00" departLane="276625085#0_0" departPos="5.10" departSpeed="0.00" departDelay="0.00" arrival="236.00" arrivalLane="1384034324_0" arrivalPos="0.20" arrivalSpeed="10.92" duration="26.00" routeLength="244.09" waitingTime="0.00" waitingCount="0" stopTime="0.00" timeLoss="5.95" rerouteNo="0" devices="tripinfo_21" vType="DEFAULT_VEHTYPE" speedFactor="1.01" vaporized=""/>
    <tripinfo id="23" depart="230.00" departLane="-276625085#2_0" departPos="0.20" departSpeed="0.00" departDelay="0.00" arrival="240.00" arrivalLane="87479596#6_0" arrivalPos="15.97" arrivalSpeed="13.08" duration="10.00" routeLength="62.03" waitingTime="0.00" waitingCount="0" stopTime="0.00" timeLoss="6.29" rerouteNo="0" devices="tripinfo_23" vType="DEFAULT_VEHTYPE" speedFactor="0.89" vaporized=""/>
    <tripinfo id="18" depart="180.00" departLane="-276625085#0_0" departPos="5.10" departSpeed="0.00" departDelay="0.00" arrival="242.00" arrivalLane="-276625085#3_0" arrivalPos="0.67" arrivalSpeed="12.14" duration="62.00" routeLength="463.87" waitingTime="7.00" waitingCount="1" stopTime="0.00" timeLoss="19.04" rerouteNo="0" devices="tripinfo_18" vType="DEFAULT_VEHTYPE" speedFactor="0.94" vaporized=""/>
    <tripinfo id="22" depart="220.00" departLane="1384034324_0" departPos="0.20" departSpeed="0.00" departDelay="0.00" arrival="245.00" arrivalLane="-265732531_1" arrivalPos="9.65" arrivalSpeed="12.12" duration="25.00" routeLength="221.05" waitingTime="1.00" waitingCount="1" stopTime="0.00" timeLoss="5.21" rerouteNo="0" devices="tripinfo_22" vType="DEFAULT_VEHTYPE" speedFactor="0.97" vaporized=""/>
    <tripinfo id="24" depart="240.00" departLane="276625085#1_0" departPos="0.20" departSpeed="0.00" departDelay="0.00" arrival="247.00" arrivalLane="268552024#1_0" arrivalPos="10.18" arrivalSpeed="11.90" duration="7.00" routeLength="39.98" waitingTime="0.00" waitingCount="0" stopTime="0.00" timeLoss="3.45" rerouteNo="0" devices="tripinfo_24" vType="DEFAULT_VEHTYPE" speedFactor="0.83" vaporized=""/>
    <tripinfo id="17" depart="170.00" departLane="749942457_0" departPos="5.10" departSpeed="0.00" departDelay="0.00" arrival="266.00" arrivalLane="-1167494165#1_0" arrivalPos="17.88" arrivalSpeed="21.86" duration="96.00" routeLength="1458.93" waitingTime="10.00" waitingCount="1" stopTime="0.00" timeLoss="28.18" rerouteNo="0" devices="tripinfo_17" vType="DEFAULT_VEHTYPE" speedFactor="0.94" vaporized=""/>
    <tripinfo id="25" depart="250.00" departLane="-1384034325#5_0" departPos="5.10" departSpeed="0.00" departDelay="0.00" arrival="295.00" arrivalLane="824453750#0_0" arrivalPos="33.30" arrivalSpeed="12.85" duration="45.00" routeLength="333.57" waitingTime="0.00" waitingCount="0" stopTime="0.00" timeLoss="15.53" rerouteNo="0" devices="tripinfo_25" vType="DEFAULT_VEHTYPE" speedFactor="0.87" vaporized=""/>
    <tripinfo id="28" depart="280.00" departLane="268552023#0_0" departPos="5.10" departSpeed="0.00" departDelay="0.00" arrival="296.00" arrivalLane="276625085#3_0" arrivalPos="0.67" arrivalSpeed="8.41" duration="16.00" routeLength="48.28" waitingTime="3.00" waitingCount="1" stopTime="0.00" timeLoss="13.72" rerouteNo="0" devices="tripinfo_28" vType="DEFAULT_VEHTYPE" speedFactor="1.13" vaporized=""/>
    <tripinfo id="26" depart="260.00" departLane="-1384034325#5_0" departPos="5.10" departSpeed="0.00" departDelay="0.00" arrival="316.00" arrivalLane="1384034324_0" arrivalPos="0.20" arrivalSpeed="9.52" duration="56.00" routeLength="485.77" waitingTime="0.00" waitingCount="0" stopTime="0.00" timeLoss="12.41" rerouteNo="0" devices="tripinfo_26" vType="DEFAULT_VEHTYPE" speedFactor="0.92" vaporized=""/>
    <tripinfo id="29" depart="290.00" departLane="87479596#3_0" departPos="5.10" departSpeed="0.00" departDelay="0.00" arrival="321.00" arrivalLane="824453750#2_0" arrivalPos="0.20" arrivalSpeed="8.23" duration="31.00" routeLength="46.00" waitingTime="14.00" waitingCount="1" stopTime="0.00" timeLoss="26.79" rerouteNo="0" devices="tripinfo_29" vType="DEFAULT_VEHTYPE" speedFactor="0.93" vaporized=""/>
    <tripinfo id="27" depart="270.00" departLane="87479601_0" departPos="5.10" departSpeed="0.00" departDelay="0.00" arrival="322.00" arrivalLane="276625085#0_0" arrivalPos="9.76" arrivalSpeed="9.91" duration="52.00" routeLength="341.90" waitingTime="19.00" waitingCount="2" stopTime="0.00" timeLoss="37.09" rerouteNo="0" devices="tripinfo_27" vType="DEFAULT_VEHTYPE" speedFactor="0.95" vaporized=""/>
    <tripinfo id="30" depart="300.00" departLane="-276625085#0_0" departPos="5.10" departSpeed="0.00" departDelay="0.00" arrival="326.00" arrivalLane="-1167494165#0_0" arrivalPos="14.28" arrivalSpeed="17.05" duration="26.00" routeLength="76.55" waitingTime="13.00" waitingCount="1" stopTime="0.00" timeLoss="23.32" rerouteNo="0" devices="tripinfo_30" vType="DEFAULT_VEHTYPE" speedFactor="1.18" vaporized=""/>
    <tripinfo id="32" depart="320.00" departLane="-265732531_0" departPos="5.10" departSpeed="0.00" departDelay="0.00" arrival="334.00" arrivalLane="87479596#7_0" arrivalPos="8.18" arrivalSpeed="14.49" duration="14.00" routeLength="94.74" waitingTime="0.00" waitingCount="0" stopTime="0.00" timeLoss="8.39" rerouteNo="0" devices="tripinfo_32" vType="DEFAULT_VEHTYPE" speedFactor="1.01" vaporized=""/>
    <tripinfo id="34" depart="340.00" departLane="276625085#1_0" departPos="0.20" departSpeed="0.00" departDelay="0.00" arrival="346.00" arrivalLane="1384034325#0_0" arrivalPos="12.13" arrivalSpeed="10.33" duration="6.00" routeLength="37.88" waitingTime="0.00" waitingCount="0" stopTime="0.00" timeLoss="3.52" rerouteNo="0" devices="tripinfo_34" vType="DEFAULT_VEHTYPE" speedFactor="0.99" vaporized=""/>
    <tripinfo id="33" depart="330.00" departLane="87479596#4_0" departPos="0.20" departSpeed="0.00" departDelay="0.00" arrival="356.00" arrivalLane="-87479601_0" arrivalPos="249.89" arrivalSpeed="32.37" duration="26.00" routeLength="322.77" waitingTime="7.00" waitingCount="1" stopTime="0.00" timeLoss="14.89" rerouteNo="0" devices="tripinfo_33" vType="DEFAULT_VEHTYPE" speedFactor="1.17" vaporized=""/>
    <tripinfo id="36" depart="360.00" departLane="-276625085#2_0" departPos="0.20" departSpeed="0.00" departDelay="0.00" arrival="363.00" arrivalLane="-276625085#1_0" arrivalPos="0.20" arrivalSpeed="5.72" duration="3.00" routeLength="6.13" waitingTime="0.00" waitingCount="0" stopTime="0.00" timeLoss="2.59" rerouteNo="0" devices="tripinfo_36" vType="DEFAULT_VEHTYPE" speedFactor="0.97" vaporized=""/>
    <tripinfo id="31" depart="322.00" departLane="1167494164_0" departPos="0.20" departSpeed="0.00" departDelay="12.00" arrival="366.00" arrivalLane="-276625085#2_0" arrivalPos="0.20" arrivalSpeed="14.42" duration="44.00" routeLength="470.11" waitingTime="0.00" waitingCount="0" stopTime="0.00" timeLoss="10.31" rerouteNo="0" devices="tripinfo_31" vType="DEFAULT_VEHTYPE" speedFactor="1.15" vaporized=""/>
    <tripinfo id="40" depart="400.00" departLane="-1384034325#1_0" departPos="5.10" departSpeed="0.00" departDelay="0.00" arrival="413.00" arrivalLane="-1167494165#1_0" arrivalPos="17.88" arrivalSpeed="21.45" duration="13.00" routeLength="142.70" waitingTime="0.00" waitingCount="0" stopTime="0.00" timeLoss="5.56" rerouteNo="0" devices="tripinfo_40" vType="DEFAULT_VEHTYPE" speedFactor="1.03" vaporized=""/>
    <tripinfo id="37" depart="370.00" departLane="268552023#1_0" departPos="5.10" departSpeed="0.00" departDelay="0.00" arrival="414.00" arrivalLane="-276625085#2_0" arrivalPos="0.20" arrivalSpeed="15.01" duration="44.00" routeLength="456.53" waitingTime="0.00" waitingCount="0" stopTime="0.00" timeLoss="10.24" rerouteNo="0" devices="tripinfo_37" vType="DEFAULT_VEHTYPE" speedFactor="1.18" vaporized=""/>
    <tripinfo id="38" depart="380.00" departLane="1384034325#0_0" departPos="5.10" departSpeed="0.00" departDelay="0.00" arrival="420.00" arrivalLane="-265732531_1" arrivalPos="9.65" arrivalSpeed="14.37" duration="40.00" routeLength="397.23" waitingTime="0.00" waitingCount="0" stopTime="0.00" timeLoss="7.58" rerouteNo="0" devices="tripinfo_38" vType="DEFAULT_VEHTYPE" speedFactor="1.10" vaporized=""/>
    <tripinfo id="35" depart="350.00" departLane="87479596#6_0" departPos="5.10" departSpeed="0.00" departDelay="0.00" arrival="430.00" arrivalLane="1384034325#3_0" arrivalPos="39.38" arrivalSpeed="10.50" duration="80.00" routeLength="301.14" waitingTime="39.00" waitingCount="2" stopTime="0.00" timeLoss="58.26" rerouteNo="0" devices="tripinfo_35" vType="DEFAULT_VEHTYPE" speedFactor="1.02" vaporized=""/>
    <tripinfo id="41" depart="410.00" departLane="-1384034325#2_0" departPos="5.10" departSpeed="0.00" departDelay="0.00" arrival="430.00" arrivalLane="276625085#0_0" arrivalPos="9.76" arrivalSpeed="6.31" duration="20.00" routeLength="154.31" waitingTime="0.00" waitingCount="0" stopTime="0.00" timeLoss="8.15" rerouteNo="0" devices="tripinfo_41" vType="DEFAULT_VEHTYPE" speedFactor="0.96" vaporized=""/>
    <tripinfo id="42" depart="420.00" departLane="87479596#0_0" departPos="5.10" departSpeed="0.00" departDelay="0.00" arrival="444.00" arrivalLane="1384034325#2_0" arrivalPos="46.55" arrivalSpeed="10.90" duration="24.00" routeLength="259.39" waitingTime="0.00" waitingCount="0" stopTime="0.00" timeLoss="9.59" rerouteNo="0" devices="tripinfo_42" vType="DEFAULT_VEHTYPE" speedFactor="1.09" vaporized=""/>
    <tripinfo id="43" depart="430.00" departLane="-1384034325#0_0" departPos="5.10" departSpeed="0.00" departDelay="0.00" arrival="461.00" arrivalLane="1384034325#0_0" arrivalPos="12.13" arrivalSpeed="10.61" duration="31.00" routeLength="109.73" waitingTime="10.00" waitingCount="2" stopTime="0.00" timeLoss="24.78" rerouteNo="0" devices="tripinfo_43" vType="DEFAULT_VEHTYPE" speedFactor="1.04" vaporized=""/>
    <tripinfo id="46" depart="460.00" departLane="276625085#3_0" departPos="0.67" departSpeed="0.00" departDelay="0.00" arrival="464.00" arrivalLane="265732531_0" arrivalPos="9.65" arrivalSpeed="7.76" duration="4.00" routeLength="18.05" waitingTime="0.00" waitingCount="0" stopTime="0.00" timeLoss="3.29" rerouteNo="0" devices="tripinfo_46" vType="DEFAULT_VEHTYPE" speedFactor="1.00" vaporized=""/>
    <tripinfo id="45" depart="451.00" departLane="-1167494164_0" departPos="0.20" departSpeed="0.00" departDelay="1.00" arrival="467.00" arrivalLane="824453750#0_0" arrivalPos="33.30" arrivalSpeed="14.30" duration="16.00" routeLength="112.49" waitingTime="0.00" waitingCount="0" stopTime="0.00" timeLoss="9.47" rerouteNo="0" devices="tripinfo_45" vType="DEFAULT_VEHTYPE" speedFactor="1.09" vaporized=""/>
    <tripinfo id="44" depart="440.00" departLane="87479601_0" departPos="5.10" departSpeed="0.00" departDelay="0.00" arrival="497.00" arrivalLane="265732531_0" arrivalPos="9.65" arrivalSpeed="14.64" duration="57.00" routeLength="374.57" waitingTime="22.00" waitingCount="2" stopTime="0.00" timeLoss="42.10" rerouteNo="0" devices="tripinfo_44" vType="DEFAULT_VEHTYPE" speedFactor="1.04" vaporized=""/>
    <tripinfo id="47" depart="470.00" departLane="-276625085#2_0" departPos="0.20" departSpeed="0.00" departDelay="0.00" arrival="498.00" arrivalLane="276625085#1_0" arrivalPos="0.20" arrivalSpeed="8.68" duration="28.00" routeLength="44.34" waitingTime="16.00" waitingCount="2" stopTime="0.00" timeLoss="24.85" rerouteNo="0" devices="tripinfo_47" vType="DEFAULT_VEHTYPE" speedFactor="0.90" vaporized=""/>
    <tripinfo id="39" depart="390.00" departLane="87479601_0" departPos="5.10" departSpeed="0.00" departDelay="0.00" arrival="502.00" arrivalLane="265732530_0" arrivalPos="203.61" arrivalSpeed="9.00" duration="112.00" routeLength="797.71" waitingTime="32.00" waitingCount="2" stopTime="0.00" timeLoss="52.29" rerouteNo="0" devices="tripinfo_39" vType="DEFAULT_VEHTYPE" speedFactor="0.90" vaporized=""/>
    <tripinfo id="48" depart="480.00" departLane="-1384034325#2_0" departPos="5.10" departSpeed="0.00" departDelay="0.00" arrival="517.00" arrivalLane="1384034325#2_0" arrivalPos="46.55" arrivalSpeed="9.54" duration="37.00" routeLength="289.07" waitingTime="0.00" waitingCount="0" stopTime="0.00" timeLoss="11.20" rerouteNo="0" devices="tripinfo_48" vType="DEFAULT_VEHTYPE" speedFactor="0.88" vaporized=""/>
    <tripinfo id="52" depart="520.00" departLane="-276625085#3_0" departPos="0.67" departSpeed="0.00" departDelay="0.00" arrival="533.00" arrivalLane="276625085#0_0" arrivalPos="9.76" arrivalSpeed="7.90" duration="13.00" routeLength="38.17" waitingTime="3.00" waitingCount="1" stopTime="0.00" timeLoss="10.90" rerouteNo="0" devices="tripinfo_52" vType="DEFAULT_VEHTYPE" speedFactor="1.02" vaporized=""/>
    <tripinfo id="54" depart="540.00" departLane="-1167494164_0" departPos="0.20" departSpeed="0.00" departDelay="0.00" arrival="542.00" arrivalLane="1167494164_0" arrivalPos="0.20" arrivalSpeed="3.66" duration="2.00" routeLength="4.87" waitingTime="0.00" waitingCount="0" stopTime="0.00" timeLoss="1.19" rerouteNo="0" devices="tripinfo_54" vType="DEFAULT_VEHTYPE" speedFactor="1.00" vaporized=""/>
    <tripinfo id="49" depart="490.00" departLane="1384034325#3_0" departPos="5.10" departSpeed="0.00" departDelay="0.00" arrival="546.00" arrivalLane="87479596#7_0" arrivalPos="8.18" arrivalSpeed="11.58" duration="56.00" routeLength="385.53" waitingTime="1.00" waitingCount="1" stopTime="0.00" timeLoss="18.86" rerouteNo="0" devices="tripinfo_49" vType="DEFAULT_VEHTYPE" speedFactor="0.85" vaporized=""/>
    <tripinfo id="51" depart="510.00" departLane="198582931_0" departPos="5.10" departSpeed="0.00" departDelay="0.00" arrival="561.00" arrivalLane="-1384034325#4_1" arrivalPos="28.25" arrivalSpeed="12.17" duration="51.00" routeLength="1157.51" waitingTime="0.00" waitingCount="0" stopTime="0.00" timeLoss="10.48" rerouteNo="0" devices="tripinfo_51" vType="DEFAULT_VEHTYPE" speedFactor="1.17" vaporized=""/>
    <tripinfo id="50" depart="500.00" departLane="87479596#4_0" departPos="0.20" departSpeed="0.00" departDelay="0.00" arrival="566.00" arrivalLane="-276625085#2_0" arrivalPos="0.20" arrivalSpeed="12.91" duration="66.00" routeLength="469.24" waitingTime="9.00" waitingCount="1" stopTime="0.00" timeLoss="19.56" rerouteNo="0" devices="tripinfo_50" vType="DEFAULT_VEHTYPE" speedFactor="0.85" vaporized=""/>
    <tripinfo id="55" depart="550.00" departLane="-1167494164_0" departPos="0.20" departSpeed="0.00" departDelay="0.00" arrival="579.00" arrivalLane="87479596#6_0" arrivalPos="15.97" arrivalSpeed="12.46" duration="29.00" routeLength="50.17" waitingTime="21.00" waitingCount="2" stopTime="0.00" timeLoss="25.36" rerouteNo="0" devices="tripinfo_55" vType="DEFAULT_VEHTYPE" speedFactor="1.00" vaporized=""/>
    <tripinfo id="56" depart="575.00" departLane="1167494164_0" departPos="0.20" departSpeed="0.00" departDelay="15.00" arrival="584.00" arrivalLane="-1167494165#1_0" arrivalPos="17.88" arrivalSpeed="11.81" duration="9.00" routeLength="39.55" waitingTime="1.00" waitingCount="1" stopTime="0.00" timeLoss="5.92" rerouteNo="0" devices="tripinfo_56" vType="DEFAULT_VEHTYPE" speedFactor="0.90" vaporized=""/>
    <tripinfo id="57" depart="570.00" departLane="87479596#4_0" departPos="0.20" departSpeed="0.00" departDelay="0.00" arrival="597.00" arrivalLane="87479596#7_0" arrivalPos="8.18" arrivalSpeed="13.54" duration="27.00" routeLength="64.67" waitingTime="19.00" waitingCount="1" stopTime="0.00" timeLoss="24.30" rerouteNo="0" devices="tripinfo_57" vType="DEFAULT_VEHTYPE" speedFactor="1.14" vaporized=""/>
    <tripinfo id="53" depart="530.00" departLane="268552024#1_0" departPos="5.10" departSpeed="0.00" departDelay="0.00" arrival="605.00" arrivalLane="-1384034325#3_1" arrivalPos="39.38" arrivalSpeed="11.74" duration="75.00" routeLength="444.54" waitingTime="18.00" waitingCount="2" stopTime="0.00" timeLoss="42.00" rerouteNo="0" devices="tripinfo_53" vType="DEFAULT_VEHTYPE" speedFactor="1.10" vaporized=""/>
    <tripinfo id="59" depart="590.00" departLane="-1384034325#0_0" departPos="5.10" departSpeed="0.00" departDelay="0.00" arrival="619.00" arrivalLane="824453750#2_0" arrivalPos="0.20" arrivalSpeed="8.12" duration="29.00" routeLength="81.09" waitingTime="14.00" waitingCount="1" stopTime="0.00" timeLoss="25.07" rerouteNo="0" devices="tripinfo_59" vType="DEFAULT_VEHTYPE" speedFactor="0.97" vaporized=""/>
    <tripinfo id="58" depart="580.00" departLane="-1384034325#1_0" departPos="5.10" departSpeed="0.00" departDelay="0.00" arrival="636.00" arrivalLane="1384034325#5_0" arrivalPos="23.73" arrivalSpeed="10.07" duration="56.00" routeLength="334.29" waitingTime="15.00" waitingCount="1" stopTime="0.00" timeLoss="29.56" rerouteNo="0" devices="tripinfo_58" vType="DEFAULT_VEHTYPE" speedFactor="1.02" vaporized=""/>
    <tripinfo id="60" depart="600.00" departLane="1384034325#2_0" departPos="5.10" departSpeed="0.00" departDelay="0.00" arrival="636.00" arrivalLane="-265732531_1" arrivalPos="9.65" arrivalSpeed="10.97" duration="36.00" routeLength="341.99" waitingTime="0.00" waitingCount="0" stopTime="0.00" timeLoss="7.59" rerouteNo="0" devices="tripinfo_60" vType="DEFAULT_VEHTYPE" speedFactor="1.08" vaporized=""/>
    <tripinfo id="62" depart="620.00" departLane="-265732531_0" departPos="5.10" departSpeed="0.00" departDelay="0.00" arrival="646.00" arrivalLane="-87479601_0" arrivalPos="249.89" arrivalSpeed="27.09" duration="26.00" routeLength="352.84" waitingTime="0.00" waitingCount="0" stopTime="0.00" timeLoss="11.39" rerouteNo="0" devices="tripinfo_62" vType="DEFAULT_VEHTYPE" speedFactor="1.02" vaporized=""/>
    <tripinfo id="63" depart="630.00" departLane="87479601_0" departPos="5.10" departSpeed="0.00" departDelay="0.00" arrival="655.00" arrivalLane="276625085#1_0" arrivalPos="0.20" arrivalSpeed="11.79" duration="25.00" routeLength="349.12" waitingTime="0.00" waitingCount="0" stopTime="0.00" timeLoss="10.82" rerouteNo="0" devices="tripinfo_63" vType="DEFAULT_VEHTYPE" speedFactor="0.99" vaporized=""/>
    <tripinfo id="61" depart="610.00" departLane="265732531_0" departPos="5.10" departSpeed="0.00" departDelay="0.00" arrival="666.00" arrivalLane="824453750#0_0" arrivalPos="33.30" arrivalSpeed="11.59" duration="56.00" routeLength="542.06" waitingTime="0.00" waitingCount="0" stopTime="0.00" timeLoss="15.67" rerouteNo="0" devices="tripinfo_61" vType="DEFAULT_VEHTYPE" speedFactor="1.12" vaporized=""/>
    <tripinfo id="65" depart="650.00" departLane="-1384034325#3_0" departPos="5.10" departSpeed="0.00" departDelay="0.00" arrival="671.00" arrivalLane="-276625085#0_0" arrivalPos="9.76" arrivalSpeed="16.58" duration="21.00" routeLength="179.36" waitingTime="0.00" waitingCount="0" stopTime="0.00" timeLoss="5.23" rerouteNo="0" devices="tripinfo_65" vType="DEFAULT_VEHTYPE" speedFactor="0.88" vaporized=""/>
    <tripinfo id="67" depart="671.00" departLane="-276625085#0_0" departPos="5.10" departSpeed="0.00" departDelay="1.00" arrival="673.00" arrivalLane="-276625085#0_0" arrivalPos="9.76" arrivalSpeed="3.75" duration="2.00" routeLength="4.66" waitingTime="0.00" waitingCount="0" stopTime="0.00" timeLoss="1.78" rerouteNo="0" devices="tripinfo_67" vType="DEFAULT_VEHTYPE" speedFactor="0.91" vaporized=""/>
    <tripinfo id="66" depart="660.00" departLane="1167494165#0_0" departPos="5.10" departSpeed="0.00" departDelay="0.00" arrival="675.00" arrivalLane="268552024#0_0" arrivalPos="15.33" arrivalSpeed="9.03" duration="15.00" routeLength="107.85" waitingTime="0.00" waitingCount="0" stopTime="0.00" timeLoss="8.93" rerouteNo="0" devices="tripinfo_66" vType="DEFAULT_VEHTYPE" speedFactor="0.91" vaporized=""/>
    <tripinfo id="64" depart="640.00" departLane="1384034325#2_0" departPos="5.10" departSpeed="0.00" departDelay="0.00" arrival="680.00" arrivalLane="265732530_0" arrivalPos="203.61" arrivalSpeed="10.29" duration="40.00" routeLength="362.50" waitingTime="0.00" waitingCount="0" stopTime="0.00" timeLoss="4.36" rerouteNo="0" devices="tripinfo_64" vType="DEFAULT_VEHTYPE" speedFactor="0.94" vaporized=""/>
    <tripinfo id="68" depart="680.00" departLane="-1384034325#0_0" departPos="5.10" departSpeed="0.00" departDelay="0.00" arrival="692.00" arrivalLane="276625085#0_0" arrivalPos="9.76" arrivalSpeed="7.31" duration="12.00" routeLength="64.63" waitingTime="0.00" waitingCount="0" stopTime="0.00" timeLoss="8.53" rerouteNo="0" devices="tripinfo_68" vType="DEFAULT_VEHTYPE" speedFactor="1.04" vaporized=""/>
    <tripinfo id="69" depart="690.00" departLane="-276625085#0_0" departPos="5.10" departSpeed="0.00" departDelay="0.00" arrival="701.00" arrivalLane="87479596#5_0" arrivalPos="6.31" arrivalSpeed="7.34" duration="11.00" routeLength="20.09" waitingTime="5.00" waitingCount="1" stopTime="0.00" timeLoss="9.47" rerouteNo="0" devices="tripinfo_69" vType="DEFAULT_VEHTYPE" speedFactor="1.02" vaporized=""/>
    <tripinfo id="71" depart="710.00" departLane="-276625085#0_0" departPos="5.10" departSpeed="0.00" departDelay="0.00" arrival="718.00" arrivalLane="276625085#2_0" arrivalPos="0.20" arrivalSpeed="9.45" duration="8.00" routeLength="32.21" waitingTime="0.00" waitingCount="0" stopTime="0.00" timeLoss="4.89" rerouteNo="0" devices="tripinfo_71" vType="DEFAULT_VEHTYPE" speedFactor="0.97" vaporized=""/>