<?xml version="1.0" encoding="UTF-8"?>

<!-- generated on 2025-09-21 00:39:37 by Eclipse SUMO GUI Version 1.24.0
<sumoConfiguration xmlns:xsi="http://www.w3.org/2001/XMLSchema-instance" xsi:noNamespaceSchemaLocation="http://sumo.dlr.de/xsd/sumoConfiguration.xsd">

    <input>
        <net-file value="KCCIntersection.net.xml"/>
        <route-files value="KCCIntersection_500h.rou.xml"/>
        <additional-files value="KCCIntersectionConfig.add.xml"/>
    </input>

    <output>
        <tripinfo-output value="optimized_tripinfo.xml"/>
    </output>

    <time>
        <begin value="0"/>
        <end value="1800000"/>
    </time>

    <processing>
        <ignore-junction-blocker value="5"/>
        <time-to-teleport value="-1"/>
    </processing>

    <report>
        <no-warnings value="false"/>
        <duration-log.disable value="true"/>
        <no-step-log value="true"/>
    </report>

    <traci_server>
        <remote-port value="52004"/>
    </traci_server>

    <gui_only>
        <quit-on-end value="true"/>
        <start value="true"/>
    </gui_only>

</sumoConfiguration>
-->

<tripinfos xmlns:xsi="http://www.w3.org/2001/XMLSchema-instance" xsi:noNamespaceSchemaLocation="http://sumo.dlr.de/xsd/tripinfo_file.xsd">
    <tripinfo id="private_car_0001" depart="0.00" departLane="276625085#0_0" departPos="4.90" departSpeed="0.00" departDelay="0.00" arrival="12.00" arrivalLane="-1167494165#0_0" arrivalPos="14.28" arrivalSpeed="18.30" duration="12.00" routeLength="91.18" waitingTime="0.00" waitingCount="0" stopTime="0.00" timeLoss="6.33" rerouteNo="0" devices="tripinfo_private_car_0001" vType="private_car" speedFactor="1.06" vaporized=""/>
    <tripinfo id="jeepney_0001" depart="10.00" departLane="-276625085#2_0" departPos="0.20" departSpeed="0.00" departDelay="0.00" arrival="18.00" arrivalLane="-276625085#0_0" arrivalPos="9.76" arrivalSpeed="6.46" duration="8.00" routeLength="22.69" waitingTime="0.00" waitingCount="0" stopTime="0.00" timeLoss="6.55" rerouteNo="0" devices="tripinfo_jeepney_0001" vType="jeepney" speedFactor="0.84" vaporized=""/>
    <tripinfo id="multicab_0001" depart="20.00" departLane="824453750#0_0" departPos="4.60" departSpeed="0.00" departDelay="0.00" arrival="68.00" arrivalLane="276625085#2_0" arrivalPos="0.20" arrivalSpeed="8.96" duration="48.00" routeLength="95.53" waitingTime="23.00" waitingCount="2" stopTime="0.00" timeLoss="40.70" rerouteNo="0" devices="tripinfo_multicab_0001" vType="multicab" speedFactor="0.86" vaporized=""/>
    <tripinfo id="tricycle_0002" depart="70.00" departLane="-276625085#0_0" departPos="3.60" departSpeed="0.00" departDelay="0.00" arrival="87.00" arrivalLane="268552024#0_0" arrivalPos="15.33" arrivalSpeed="5.56" duration="17.00" routeLength="52.75" waitingTime="0.00" waitingCount="0" stopTime="0.00" timeLoss="10.38" rerouteNo="0" devices="tripinfo_tricycle_0002" vType="tricycle" speedFactor="0.69" vaporized=""/>
    <tripinfo id="jeepney_0002" depart="40.00" departLane="1384034325#2_0" departPos="7.10" departSpeed="0.00" departDelay="0.00" arrival="96.00" arrivalLane="-1167494165#0_0" arrivalPos="14.28" arrivalSpeed="18.08" duration="56.00" routeLength="445.10" waitingTime="1.00" waitingCount="1" stopTime="0.00" timeLoss="17.88" rerouteNo="0" devices="tripinfo_jeepney_0002" vType="jeepney" speedFactor="0.93" vaporized=""/>
    <tripinfo id="tricycle_0003" depart="80.00" departLane="87479596#1_0" departPos="3.60" departSpeed="0.00" departDelay="0.00" arrival="99.00" arrivalLane="-1167494164_0" arrivalPos="0.20" arrivalSpeed="3.96" duration="19.00" routeLength="89.24" waitingTime="0.00" waitingCount="0" stopTime="0.00" timeLoss="10.76" rerouteNo="0" devices="tripinfo_tricycle_0003" vType="tricycle" speedFactor="0.74" vaporized=""/>
    <tripinfo id="private_car_0003" depart="90.00" departLane="87479596#1_0" departPos="4.90" departSpeed="0.00" departDelay="0.00" arrival="103.00" arrivalLane="276625085#3_0" arrivalPos="0.67" arrivalSpeed="13.37" duration="13.00" routeLength="112.80" waitingTime="0.00" waitingCount="0" stopTime="0.00" timeLoss="7.60" rerouteNo="0" devices="tripinfo_private_car_0003" vType="private_car" speedFactor="0.86" vaporized=""/>
    <tripinfo id="jeepney_0003" depart="60.00" departLane="-1167494165#1_0" departPos="7.10" departSpeed="0.00" departDelay="0.00" arrival="120.00" arrivalLane="-1384034325#5_1" arrivalPos="23.73" arrivalSpeed="6.68" duration="60.00" routeLength="373.69" waitingTime="1.00" waitingCount="1" stopTime="0.00" timeLoss="28.88" rerouteNo="0" devices="tripinfo_jeepney_0003" vType="jeepney" speedFactor="0.95" vaporized=""/>
    <tripinfo id="tricycle_0001" depart="30.00" departLane="87479596#5_0" departPos="3.60" departSpeed="0.00" departDelay="0.00" arrival="121.00" arrivalLane="-1384034325#0_0" arrivalPos="12.13" arrivalSpeed="9.57" duration="91.00" routeLength="568.00" waitingTime="8.00" waitingCount="2" stopTime="0.00" timeLoss="34.66" rerouteNo="0" devices="tripinfo_tricycle_0001" vType="tricycle" speedFactor="0.88" vaporized=""/>
    <tripinfo id="private_car_0002" depart="50.00" departLane="-265732531_0" departPos="4.90" departSpeed="0.00" departDelay="0.00" arrival="126.00" arrivalLane="265732530_0" arrivalPos="203.61" arrivalSpeed="8.78" duration="76.00" routeLength="508.21" waitingTime="10.00" waitingCount="2" stopTime="0.00" timeLoss="24.45" rerouteNo="0" devices="tripinfo_private_car_0002" vType="private_car" speedFactor="0.83" vaporized=""/>
    <tripinfo id="tricycle_0004" depart="120.00" departLane="-1384034325#1_0" departPos="3.60" departSpeed="0.00" departDelay="0.00" arrival="129.00" arrivalLane="-1384034325#0_0" arrivalPos="12.13" arrivalSpeed="8.34" duration="9.00" routeLength="51.35" waitingTime="0.00" waitingCount="0" stopTime="0.00" timeLoss="3.29" rerouteNo="0" devices="tripinfo_tricycle_0004" vType="tricycle" speedFactor="0.85" vaporized=""/>
    <tripinfo id="jeepney_0005" depart="110.00" departLane="87479600#0_0" departPos="7.10" departSpeed="0.00" departDelay="0.00" arrival="130.00" arrivalLane="1167494164_0" arrivalPos="0.20" arrivalSpeed="9.26" duration="20.00" routeLength="118.95" waitingTime="0.00" waitingCount="0" stopTime="0.00" timeLoss="11.90" rerouteNo="0" devices="tripinfo_jeepney_0005" vType="jeepney" speedFactor="0.93" vaporized=""/>
    <tripinfo id="tricycle_0005" depart="130.00" departLane="87479596#3_0" departPos="3.60" departSpeed="0.00" departDelay="0.00" arrival="147.00" arrivalLane="268552024#1_0" arrivalPos="10.18" arrivalSpeed="9.45" duration="17.00" routeLength="89.05" waitingTime="0.00" waitingCount="0" stopTime="0.00" timeLoss="8.54" rerouteNo="0" devices="tripinfo_tricycle_0005" vType="tricycle" speedFactor="0.92" vaporized=""/>
    <tripinfo id="jeepney_0004" depart="100.00" departLane="1167494165#1_0" departPos="7.10" departSpeed="0.00" departDelay="0.00" arrival="161.00" arrivalLane="-1384034325#3_1" arrivalPos="39.38" arrivalSpeed="10.22" duration="61.00" routeLength="375.51" waitingTime="9.00" waitingCount="1" stopTime="0.00" timeLoss="27.76" rerouteNo="0" devices="tripinfo_jeepney_0004" vType="jeepney" speedFactor="0.99" vaporized=""/>
    <tripinfo id="jeepney_0006" depart="140.00" departLane="87479596#1_0" departPos="7.10" departSpeed="0.00" departDelay="0.00" arrival="166.00" arrivalLane="824453750#0_0" arrivalPos="33.30" arrivalSpeed="9.02" duration="26.00" routeLength="181.93" waitingTime="0.00" waitingCount="0" stopTime="0.00" timeLoss="14.42" rerouteNo="0" devices="tripinfo_jeepney_0006" vType="jeepney" speedFactor="0.89" vaporized=""/>
    <tripinfo id="jeepney_0008" depart="160.00" departLane="87479596#2_0" departPos="7.10" departSpeed="0.00" departDelay="0.00" arrival="181.00" arrivalLane="268552024#1_0" arrivalPos="10.18" arrivalSpeed="7.94" duration="21.00" routeLength="110.50" waitingTime="0.00" waitingCount="0" stopTime="0.00" timeLoss="12.37" rerouteNo="0" devices="tripinfo_jeepney_0008" vType="jeepney" speedFactor="0.78" vaporized=""/>
    <tripinfo id="tricycle_0006" depart="190.00" departLane="-1384034325#0_0" departPos="3.60" departSpeed="0.00" departDelay="0.00" arrival="198.00" arrivalLane="-276625085#0_0" arrivalPos="9.76" arrivalSpeed="11.25" duration="8.00" routeLength="51.70" waitingTime="0.00" waitingCount="0" stopTime="0.00" timeLoss="4.09" rerouteNo="0" devices="tripinfo_tricycle_0006" vType="tricycle" speedFactor="0.74" vaporized=""/>
    <tripinfo id="jeepney_0010" depart="200.00" departLane="-1384034325#2_0" departPos="7.10" departSpeed="0.00" departDelay="0.00" arrival="216.00" arrivalLane="-276625085#2_0" arrivalPos="0.20" arrivalSpeed="12.85" duration="16.00" routeLength="115.19" waitingTime="0.00" waitingCount="0" stopTime="0.00" timeLoss="6.95" rerouteNo="0" devices="tripinfo_jeepney_0010" vType="jeepney" speedFactor="1.06" vaporized=""/>
    <tripinfo id="jeepney_0007" depart="150.00" departLane="265732531_0" departPos="7.10" departSpeed="0.00" departDelay="0.00" arrival="226.00" arrivalLane="87479600#0_0" arrivalPos="32.69" arrivalSpeed="8.95" duration="76.00" routeLength="540.81" waitingTime="0.00" waitingCount="0" stopTime="0.00" timeLoss="21.67" rerouteNo="0" devices="tripinfo_jeepney_0007" vType="jeepney" speedFactor="0.83" vaporized=""/>
    <tripinfo id="private_car_0004" depart="230.00" departLane="-276625085#2_0" departPos="0.20" departSpeed="0.00" departDelay="0.00" arrival="240.00" arrivalLane="87479596#6_0" arrivalPos="15.97" arrivalSpeed="11.88" duration="10.00" routeLength="62.03" waitingTime="0.00" waitingCount="0" stopTime="0.00" timeLoss="5.99" rerouteNo="0" devices="tripinfo_private_car_0004" vType="private_car" speedFactor="0.97" vaporized=""/>
    <tripinfo id="jeepney_0012" depart="240.00" departLane="276625085#1_0" departPos="0.20" departSpeed="0.00" departDelay="0.00" arrival="248.00" arrivalLane="268552024#1_0" arrivalPos="10.18" arrivalSpeed="8.97" duration="8.00" routeLength="39.98" waitingTime="0.00" waitingCount="0" stopTime="0.00" timeLoss="4.69" rerouteNo="0" devices="tripinfo_jeepney_0012" vType="jeepney" speedFactor="0.79" vaporized=""/>
    <tripinfo id="jeepney_0011" depart="220.00" departLane="1384034324_0" departPos="0.20" departSpeed="0.00" departDelay="0.00" arrival="249.00" arrivalLane="-265732531_0" arrivalPos="9.65" arrivalSpeed="11.41" duration="29.00" routeLength="221.05" waitingTime="1.00" waitingCount="1" stopTime="0.00" timeLoss="6.69" rerouteNo="0" devices="tripinfo_jeepney_0011" vType="jeepney" speedFactor="0.91" vaporized=""/>
    <tripinfo id="jeepney_0009" depart="180.00" departLane="-276625085#0_0" departPos="7.10" departSpeed="0.00" departDelay="0.00" arrival="258.00" arrivalLane="-276625085#3_0" arrivalPos="0.67" arrivalSpeed="10.84" duration="78.00" routeLength="461.87" waitingTime="8.00" waitingCount="2" stopTime="0.00" timeLoss="30.08" rerouteNo="0" devices="tripinfo_jeepney_0009" vType="jeepney" speedFactor="0.84" vaporized=""/>
    <tripinfo id="tricycle_0007" depart="210.00" departLane="276625085#0_0" departPos="3.60" departSpeed="0.00" departDelay="0.00" arrival="265.00" arrivalLane="1384034324_0" arrivalPos="0.20" arrivalSpeed="6.42" duration="55.00" routeLength="245.59" waitingTime="20.00" waitingCount="1" stopTime="0.00" timeLoss="29.36" rerouteNo="0" devices="tripinfo_tricycle_0007" vType="tricycle" speedFactor="0.82" vaporized=""/>
    <tripinfo id="bus_0001" depart="170.00" departLane="749942457_0" departPos="12.10" departSpeed="0.00" departDelay="0.00" arrival="277.00" arrivalLane="-1167494165#1_0" arrivalPos="17.88" arrivalSpeed="14.84" duration="107.00" routeLength="1451.93" waitingTime="0.00" waitingCount="0" stopTime="0.00" timeLoss="20.74" rerouteNo="0" devices="tripinfo_bus_0001" vType="bus" speedFactor="0.80" vaporized=""/>
    <tripinfo id="private_car_0005" depart="250.00" departLane="-1384034325#5_0" departPos="4.90" departSpeed="0.00" departDelay="0.00" arrival="294.00" arrivalLane="824453750#0_0" arrivalPos="33.30" arrivalSpeed="11.40" duration="44.00" routeLength="333.77" waitingTime="0.00" waitingCount="0" stopTime="0.00" timeLoss="13.69" rerouteNo="0" devices="tripinfo_private_car_0005" vType="private_car" speedFactor="0.83" vaporized=""/>
    <tripinfo id="bus_0002" depart="280.00" departLane="268552023#0_0" departPos="12.10" departSpeed="0.00" departDelay="0.00" arrival="300.00" arrivalLane="276625085#3_0" arrivalPos="0.67" arrivalSpeed="4.81" duration="20.00" routeLength="41.28" waitingTime="4.00" waitingCount="1" stopTime="0.00" timeLoss="17.43" rerouteNo="0" devices="tripinfo_bus_0002" vType="bus" speedFactor="0.80" vaporized=""/>
    <tripinfo id="jeepney_0014" depart="290.00" departLane="87479596#3_0" departPos="7.10" departSpeed="0.00" departDelay="0.00" arrival="320.00" arrivalLane="824453750#2_0" arrivalPos="0.20" arrivalSpeed="5.85" duration="30.00" routeLength="44.00" waitingTime="13.00" waitingCount="1" stopTime="0.00" timeLoss="24.71" rerouteNo="0" devices="tripinfo_jeepney_0014" vType="jeepney" speedFactor="0.85" vaporized=""/>
    <tripinfo id="jeepney_0013" depart="270.00" departLane="87479601_0" departPos="7.10" departSpeed="0.00" departDelay="0.00" arrival="321.00" arrivalLane="276625085#0_0" arrivalPos="9.76" arrivalSpeed="6.04" duration="51.00" routeLength="339.90" waitingTime="7.00" waitingCount="2" stopTime="0.00" timeLoss="32.06" rerouteNo="0" devices="tripinfo_jeepney_0013" vType="jeepney" speedFactor="0.82" vaporized=""/>
    <tripinfo id="private_car_0006" depart="260.00" departLane="-1384034325#5_0" departPos="4.90" departSpeed="0.00" departDelay="0.00" arrival="323.00" arrivalLane="1384034324_0" arrivalPos="0.20" arrivalSpeed="7.10" duration="63.00" routeLength="485.97" waitingTime="0.00" waitingCount="0" stopTime="0.00" timeLoss="16.51" rerouteNo="0" devices="tripinfo_private_car_0006" vType="private_car" speedFactor="0.87" vaporized=""/>
    <tripinfo id="bus_0003" depart="300.00" departLane="-276625085#0_0" departPos="9.76" departSpeed="0.00" departDelay="0.00" arrival="328.00" arrivalLane="-1167494165#0_0" arrivalPos="14.28" arrivalSpeed="9.70" duration="28.00" routeLength="71.89" waitingTime="12.00" waitingCount="1" stopTime="0.00" timeLoss="24.38" rerouteNo="0" devices="tripinfo_bus_0003" vType="bus" speedFactor="0.80" vaporized=""/>
    <tripinfo id="jeepney_0016" depart="320.00" departLane="-265732531_0" departPos="7.10" departSpeed="0.00" departDelay="0.00" arrival="338.00" arrivalLane="87479596#7_0" arrivalPos="8.18" arrivalSpeed="10.12" duration="18.00" routeLength="92.74" waitingTime="0.00" waitingCount="0" stopTime="0.00" timeLoss="11.61" rerouteNo="0" devices="tripinfo_jeepney_0016" vType="jeepney" speedFactor="0.83" vaporized=""/>
    <tripinfo id="jeepney_0017" depart="340.00" departLane="276625085#1_0" departPos="0.20" departSpeed="0.00" departDelay="0.00" arrival="349.00" arrivalLane="1384034325#0_0" arrivalPos="12.13" arrivalSpeed="7.53" duration="9.00" routeLength="37.88" waitingTime="0.00" waitingCount="0" stopTime="0.00" timeLoss="6.52" rerouteNo="0" devices="tripinfo_jeepney_0017" vType="jeepney" speedFactor="1.05" vaporized=""/>
    <tripinfo id="delivery_truck_0001" depart="330.00" departLane="87479596#4_0" departPos="0.20" departSpeed="0.00" departDelay="0.00" arrival="360.00" arrivalLane="-87479601_0" arrivalPos="249.89" arrivalSpeed="21.92" duration="30.00" routeLength="322.77" waitingTime="2.00" waitingCount="1" stopTime="0.00" timeLoss="14.61" rerouteNo="0" devices="tripinfo_delivery_truck_0001" vType="delivery_truck" speedFactor="0.99" vaporized=""/>
    <tripinfo id="tricycle_0008" depart="360.00" departLane="-276625085#2_0" departPos="0.20" departSpeed="0.00" departDelay="0.00" arrival="363.00" arrivalLane="-276625085#1_0" arrivalPos="0.20" arrivalSpeed="3.41" duration="3.00" routeLength="6.13" waitingTime="0.00" waitingCount="0" stopTime="0.00" timeLoss="2.52" rerouteNo="0" devices="tripinfo_tricycle_0008" vType="tricycle" speedFactor="0.97" vaporized=""/>
    <tripinfo id="jeepney_0015" depart="323.00" departLane="1167494164_0" departPos="0.20" departSpeed="0.00" departDelay="13.00" arrival="377.00" arrivalLane="-276625085#2_0" arrivalPos="0.20" arrivalSpeed="11.58" duration="54.00" routeLength="470.11" waitingTime="0.00" waitingCount="0" stopTime="0.00" timeLoss="14.99" rerouteNo="0" devices="tripinfo_jeepney_0015" vType="jeepney" speedFactor="1.03" vaporized=""/>
    <tripinfo id="jeepney_0018" depart="400.00" departLane="-1384034325#1_0" departPos="7.10" departSpeed="0.00" departDelay="0.00" arrival="428.00" arrivalLane="-1167494165#1_0" arrivalPos="17.88" arrivalSpeed="8.03" duration="28.00" routeLength="140.70" waitingTime="0.00" waitingCount="0" stopTime="0.00" timeLoss="19.05" rerouteNo="0" devices="tripinfo_jeepney_0018" vType="jeepney" speedFactor="1.08" vaporized=""/>
    <tripinfo id="private_car_0008" depart="410.00" departLane="-1384034325#2_0" departPos="4.90" departSpeed="0.00" departDelay="0.00" arrival="429.00" arrivalLane="276625085#0_0" arrivalPos="9.76" arrivalSpeed="7.23" duration="19.00" routeLength="154.51" waitingTime="0.00" waitingCount="0" stopTime="0.00" timeLoss="8.34" rerouteNo="0" devices="tripinfo_private_car_0008" vType="private_car" speedFactor="1.10" vaporized=""/>
    <tripinfo id="multicab_0002" depart="350.00" departLane="87479596#6_0" departPos="4.60" departSpeed="0.00" departDelay="0.00" arrival="440.00" arrivalLane="1384034325#3_0" arrivalPos="39.38" arrivalSpeed="8.52" duration="90.00" routeLength="301.64" waitingTime="39.00" waitingCount="2" stopTime="0.00" timeLoss="62.98" rerouteNo="0" devices="tripinfo_multicab_0002" vType="multicab" speedFactor="0.86" vaporized=""/>
    <tripinfo id="tricycle_0009" depart="370.00" departLane="268552023#1_0" departPos="3.60" departSpeed="0.00" departDelay="0.00" arrival="441.00" arrivalLane="-276625085#2_0" arrivalPos="0.20" arrivalSpeed="11.80" duration="71.00" routeLength="458.03" waitingTime="3.00" waitingCount="1" stopTime="0.00" timeLoss="20.61" rerouteNo="0" devices="tripinfo_tricycle_0009" vType="tricycle" speedFactor="0.79" vaporized=""/>
    <tripinfo id="private_car_0009" depart="430.00" departLane="-1384034325#0_0" departPos="4.90" departSpeed="0.00" departDelay="0.00" arrival="446.00" arrivalLane="1384034325#0_0" arrivalPos="12.13" arrivalSpeed="11.01" duration="16.00" routeLength="109.93" waitingTime="0.00" waitingCount="0" stopTime="0.00" timeLoss="8.50" rerouteNo="0" devices="tripinfo_private_car_0009" vType="private_car" speedFactor="1.03" vaporized=""/>
    <tripinfo id="tricycle_0010" depart="380.00" departLane="1384034325#0_0" departPos="3.60" departSpeed="0.00" departDelay="0.00" arrival="460.00" arrivalLane="-265732531_0" arrivalPos="9.65" arrivalSpeed="8.52" duration="80.00" routeLength="398.73" waitingTime="17.00" waitingCount="3" stopTime="0.00" timeLoss="35.43" rerouteNo="0" devices="tripinfo_tricycle_0010" vType="tricycle" speedFactor="0.82" vaporized=""/>
    <tripinfo id="jeepney_0019" depart="420.00" departLane="87479596#0_0" departPos="7.10" departSpeed="0.00" departDelay="0.00" arrival="464.00" arrivalLane="1384034325#2_0" arrivalPos="46.55" arrivalSpeed="8.10" duration="44.00" routeLength="257.39" waitingTime="2.00" waitingCount="2" stopTime="0.00" timeLoss="22.63" rerouteNo="0" devices="tripinfo_jeepney_0019" vType="jeepney" speedFactor="0.80" vaporized=""/>
    <tripinfo id="jeepney_0022" depart="460.00" departLane="276625085#3_0" departPos="0.67" departSpeed="0.00" departDelay="0.00" arrival="467.00" arrivalLane="265732531_0" arrivalPos="9.65" arrivalSpeed="5.86" duration="7.00" routeLength="18.05" waitingTime="0.00" waitingCount="0" stopTime="0.00" timeLoss="5.92" rerouteNo="0" devices="tripinfo_jeepney_0022" vType="jeepney" speedFactor="0.94" vaporized=""/>
    <tripinfo id="private_car_0007" depart="390.00" departLane="87479601_0" departPos="4.90" departSpeed="0.00" departDelay="0.00" arrival="468.00" arrivalLane="265732530_1" arrivalPos="203.61" arrivalSpeed="10.06" duration="78.00" routeLength="797.91" waitingTime="1.00" waitingCount="1" stopTime="0.00" timeLoss="20.75" rerouteNo="0" devices="tripinfo_private_car_0007" vType="private_car" speedFactor="0.97" vaporized=""/>
    <tripinfo id="jeepney_0021" depart="450.00" departLane="-1167494164_0" departPos="0.20" departSpeed="0.00" departDelay="0.00" arrival="478.00" arrivalLane="824453750#0_0" arrivalPos="33.30" arrivalSpeed="8.97" duration="28.00" routeLength="112.49" waitingTime="8.00" waitingCount="1" stopTime="0.00" timeLoss="18.22" rerouteNo="0" devices="tripinfo_jeepney_0021" vType="jeepney" speedFactor="0.99" vaporized=""/>
    <tripinfo id="jeepney_0023" depart="470.00" departLane="-276625085#2_0" departPos="0.20" departSpeed="0.00" departDelay="0.00" arrival="483.00" arrivalLane="276625085#1_0" arrivalPos="0.20" arrivalSpeed="6.14" duration="13.00" routeLength="44.34" waitingTime="0.00" waitingCount="0" stopTime="0.00" timeLoss="9.34" rerouteNo="0" devices="tripinfo_jeepney_0023" vType="jeepney" speedFactor="0.94" vaporized=""/>
    <tripinfo id="jeepney_0020" depart="440.00" departLane="87479601_0" departPos="7.10" departSpeed="0.00" departDelay="0.00" arrival="510.00" arrivalLane="265732531_0" arrivalPos="9.65" arrivalSpeed="9.33" duration="70.00" routeLength="372.57" waitingTime="19.00" waitingCount="2" stopTime="0.00" timeLoss="49.46" rerouteNo="0" devices="tripinfo_jeepney_0020" vType="jeepney" speedFactor="0.86" vaporized=""/>
    <tripinfo id="private_car_0010" depart="480.00" departLane="-1384034325#2_0" departPos="4.90" departSpeed="0.00" departDelay="0.00" arrival="521.00" arrivalLane="1384034325#2_0" arrivalPos="46.55" arrivalSpeed="11.02" duration="41.00" routeLength="289.27" waitingTime="5.00" waitingCount="1" stopTime="0.00" timeLoss="19.70" rerouteNo="0" devices="tripinfo_private_car_0010" vType="private_car" speedFactor="1.09" vaporized=""/>
    <tripinfo id="private_car_0011" depart="520.00" departLane="-276625085#3_0" departPos="0.67" departSpeed="0.00" departDelay="0.00" arrival="543.00" arrivalLane="276625085#0_0" arrivalPos="9.76" arrivalSpeed="6.78" duration="23.00" routeLength="38.17" waitingTime="12.00" waitingCount="1" stopTime="0.00" timeLoss="19.97" rerouteNo="0" devices="tripinfo_private_car_0011" vType="private_car" speedFactor="0.85" vaporized=""/>
    <tripinfo id="jeepney_0027" depart="540.00" departLane="-1167494164_0" departPos="0.20" departSpeed="0.00" departDelay="0.00" arrival="543.00" arrivalLane="1167494164_0" arrivalPos="0.20" arrivalSpeed="3.23" duration="3.00" routeLength="4.87" waitingTime="0.00" waitingCount="0" stopTime="0.00" timeLoss="1.83" rerouteNo="0" devices="tripinfo_jeepney_0027" vType="jeepney" speedFactor="1.07" vaporized=""/>
    <tripinfo id="jeepney_0024" depart="490.00" departLane="1384034325#3_0" departPos="7.10" departSpeed="0.00" departDelay="0.00" arrival="553.00" arrivalLane="87479596#7_0" arrivalPos="8.18" arrivalSpeed="11.16" duration="63.00" routeLength="383.53" waitingTime="3.00" waitingCount="1" stopTime="0.00" timeLoss="26.67" rerouteNo="0" devices="tripinfo_jeepney_0024" vType="jeepney" speedFactor="0.90" vaporized=""/>
    <tripinfo id="private_car_0012" depart="550.00" departLane="-1167494164_0" departPos="0.20" departSpeed="0.00" departDelay="0.00" arrival="557.00" arrivalLane="87479596#6_0" arrivalPos="15.97" arrivalSpeed="13.82" duration="7.00" routeLength="50.17" waitingTime="0.00" waitingCount="0" stopTime="0.00" timeLoss="3.36" rerouteNo="0" devices="tripinfo_private_car_0012" vType="private_car" speedFactor="1.02" vaporized=""/>
    <tripinfo id="habal_habal_0001" depart="570.00" departLane="87479596#4_0" departPos="0.20" departSpeed="0.00" departDelay="0.00" arrival="580.00" arrivalLane="87479596#7_0" arrivalPos="8.18" arrivalSpeed="14.62" duration="10.00" routeLength="64.67" waitingTime="0.00" waitingCount="0" stopTime="0.00" timeLoss="6.56" rerouteNo="0" devices="tripinfo_habal_habal_0001" vType="habal_habal" speedFactor="1.10" vaporized=""/>
    <tripinfo id="jeepney_0025" depart="500.00" departLane="87479596#4_0" departPos="0.20" departSpeed="0.00" departDelay="0.00" arrival="587.00" arrivalLane="-276625085#2_0" arrivalPos="0.20" arrivalSpeed="10.88" duration="87.00" routeLength="469.24" waitingTime="19.00" waitingCount="2" stopTime="0.00" timeLoss="37.51" rerouteNo="0" devices="tripinfo_jeepney_0025" vType="jeepney" speedFactor="0.80" vaporized=""/>
    <tripinfo id="jeepney_0026" depart="510.00" departLane="198582931_0" departPos="7.10" departSpeed="0.00" departDelay="0.00" arrival="587.00" arrivalLane="-1384034325#4_1" arrivalPos="28.25" arrivalSpeed="8.38" duration="77.00" routeLength="1155.51" waitingTime="0.00" waitingCount="0" stopTime="0.00" timeLoss="12.57" rerouteNo="0" devices="tripinfo_jeepney_0026" vType="jeepney" speedFactor="0.78" vaporized=""/>
    <tripinfo id="tricycle_0012" depart="560.00" departLane="1167494164_0" departPos="0.20" departSpeed="0.00" departDelay="0.00" arrival="603.00" arrivalLane="-1167494165#1_0" arrivalPos="17.88" arrivalSpeed="10.20" duration="43.00" routeLength="39.55" waitingTime="34.00" waitingCount="1" stopTime="0.00" timeLoss="39.11" rerouteNo="0" devices="tripinfo_tricycle_0012" vType="tricycle" speedFactor="0.90" vaporized=""/>
    <tripinfo id="tricycle_0013" depart="592.00" departLane="-1384034325#0_0" departPos="3.60" departSpeed="0.00" departDelay="2.00" arrival="614.00" arrivalLane="824453750#2_0" arrivalPos="0.20" arrivalSpeed="7.83" duration="22.00" routeLength="82.59" waitingTime="1.00" waitingCount="1" stopTime="0.00" timeLoss="14.74" rerouteNo="0" devices="tripinfo_tricycle_0013" vType="tricycle" speedFactor="0.70" vaporized=""/>
    <tripinfo id="private_car_0013" depart="600.00" departLane="1384034325#2_0" departPos="4.90" departSpeed="0.00" departDelay="0.00" arrival="634.00" arrivalLane="-265732531_1" arrivalPos="9.65" arrivalSpeed="14.50" duration="34.00" routeLength="342.19" waitingTime="0.00" waitingCount="0" stopTime="0.00" timeLoss="6.97" rerouteNo="0" devices="tripinfo_private_car_0013" vType="private_car" speedFactor="1.14" vaporized=""/>
    <tripinfo id="jeepney_0028" depart="581.00" departLane="-1384034325#1_0" departPos="7.10" departSpeed="0.00" departDelay="1.00" arrival="641.00" arrivalLane="1384034325#5_1" arrivalPos="23.73" arrivalSpeed="3.61" duration="60.00" routeLength="332.29" waitingTime="3.00" waitingCount="1" stopTime="0.00" timeLoss="29.72" rerouteNo="0" devices="tripinfo_jeepney_0028" vType="jeepney" speedFactor="0.90" vaporized=""/>
    <tripinfo id="delivery_truck_0002" depart="620.00" departLane="-265732531_0" departPos="6.60" departSpeed="0.00" departDelay="0.00" arrival="653.00" arrivalLane="-87479601_0" arrivalPos="249.89" arrivalSpeed="21.67" duration="33.00" routeLength="351.34" waitingTime="0.00" waitingCount="0" stopTime="0.00" timeLoss="15.67" rerouteNo="0" devices="tripinfo_delivery_truck_0002" vType="delivery_truck" speedFactor="0.88" vaporized=""/>
    <tripinfo id="tricycle_0011" depart="530.00" departLane="268552024#1_0" departPos="3.60" departSpeed="0.00" departDelay="0.00" arrival="657.00" arrivalLane="-1384034325#3_0" arrivalPos="39.38" arrivalSpeed="6.71" duration="127.00" routeLength="446.04" waitingTime="39.00" waitingCount="2" stopTime="0.00" timeLoss="70.20" rerouteNo="0" devices="tripinfo_tricycle_0011" vType="tricycle" speedFactor="0.65" vaporized=""/>
    <tripinfo id="tricycle_0014" depart="630.00" departLane="87479601_0" departPos="3.60" departSpeed="0.00" departDelay="0.00" arrival="672.00" arrivalLane="276625085#1_0" arrivalPos="0.20" arrivalSpeed="8.64" duration="42.00" routeLength="350.62" waitingTime="0.00" waitingCount="0" stopTime="0.00" timeLoss="16.60" rerouteNo="0" devices="tripinfo_tricycle_0014" vType="tricycle" speedFactor="0.88" vaporized=""/>
    <tripinfo id="tricycle_0016" depart="673.00" departLane="-276625085#0_0" departPos="3.60" departSpeed="0.00" departDelay="3.00" arrival="677.00" arrivalLane="-276625085#0_0" arrivalPos="9.76" arrivalSpeed="3.14" duration="4.00" routeLength="6.16" waitingTime="0.00" waitingCount="0" stopTime="0.00" timeLoss="3.55" rerouteNo="0" devices="tripinfo_tricycle_0016" vType="tricycle" speedFactor="0.74" vaporized=""/>
    <tripinfo id="tricycle_0015" depart="653.00" departLane="-1384034325#3_0" departPos="3.60" departSpeed="0.00" departDelay="3.00" arrival="679.00" arrivalLane="-276625085#0_0" arrivalPos="9.76" arrivalSpeed="11.65" duration="26.00" routeLength="180.86" waitingTime="0.00" waitingCount="0" stopTime="0.00" timeLoss="7.70" rerouteNo="0" devices="tripinfo_tricycle_0015" vType="tricycle" speedFactor="0.82" vaporized=""/>
    <tripinfo id="private_car_0014" depart="640.00" departLane="1384034325#2_0" departPos="4.90" departSpeed="0.00" departDelay="0.00" arrival="681.00" arrivalLane="265732530_1" arrivalPos="203.61" arrivalSpeed="11.33" duration="41.00" routeLength="362.70" waitingTime="2.00" waitingCount="1" stopTime="0.00" timeLoss="11.13" rerouteNo="0" devices="tripinfo_private_car_0014" vType="private_car" speedFactor="1.12" vaporized=""/>
    <tripinfo id="private_car_0015" depart="660.00" departLane="1167494165#0_0" departPos="4.90" departSpeed="0.00" departDelay="0.00" arrival="683.00" arrivalLane="268552024#0_0" arrivalPos="15.33" arrivalSpeed="8.90" duration="23.00" routeLength="108.05" waitingTime="2.00" waitingCount="1" stopTime="0.00" timeLoss="17.32" rerouteNo="0" devices="tripinfo_private_car_0015" vType="private_car" speedFactor="0.99" vaporized=""/>
    <tripinfo id="jeepney_0029" depart="610.00" departLane="265732531_0" departPos="7.10" departSpeed="0.00" departDelay="0.00" arrival="688.00" arrivalLane="824453750#0_0" arrivalPos="33.30" arrivalSpeed="8.79" duration="78.00" routeLength="540.06" waitingTime="0.00" waitingCount="0" stopTime="0.00" timeLoss="29.63" rerouteNo="0" devices="tripinfo_jeepney_0029" vType="jeepney" speedFactor="0.92" vaporized=""/>