<?xml version="1.0" encoding="UTF-8"?>

<!-- generated on 2025-09-21 00:35:30 by Eclipse SUMO sumo Version 1.24.0
<sumoConfiguration xmlns:xsi="http://www.w3.org/2001/XMLSchema-instance" xsi:noNamespaceSchemaLocation="http://sumo.dlr.de/xsd/sumoConfiguration.xsd">

    <input>
        <net-file value="KCCIntersection.net.xml"/>
        <route-files value="KCCIntersection_500h.rou.xml"/>
        <additional-files value="KCCIntersectionConfig_fixed.add.xml"/>
    </input>

    <output>
        <summary-output value="stable_summary.xml"/>
        <tripinfo-output value="stable_tripinfo.xml"/>
    </output>

    <time>
        <begin value="0"/>
        <end value="10"/>
        <step-length value="1"/>
    </time>

    <processing>
        <ignore-junction-blocker value="10"/>
        <ignore-route-errors value="true"/>
        <collision.action value="warn"/>
        <collision.check-junctions value="true"/>
        <time-to-teleport value="300"/>
        <max-depart-delay value="300"/>
        <lanechange.duration value="3"/>
        <time-to-impatience value="180"/>
    </processing>

    <routing>
        <device.rerouting.probability value="0.1"/>
        <device.rerouting.period value="300"/>
    </routing>

    <report>
        <verbose value="false"/>
        <no-warnings value="false"/>
        <duration-log.disable value="true"/>
        <no-step-log value="true"/>
    </report>

    <gui_only>
        <quit-on-end value="false"/>
        <start value="true"/>
    </gui_only>

</sumoConfiguration>
-->

<tripinfos xmlns:xsi="http://www.w3.org/2001/XMLSchema-instance" xsi:noNamespaceSchemaLocation="http://sumo.dlr.de/xsd/tripinfo_file.xsd">
</tripinfos>
